
     Program PWSCF v.7.3.1 starts on 17Jan2025 at 22:54:59 

     This program is part of the open-source Quantum ESPRESSO suite
     for quantum simulation of materials; please cite
         "P. Giannozzi et al., J. Phys.:Condens. Matter 21 395502 (2009);
         "P. Giannozzi et al., J. Phys.:Condens. Matter 29 465901 (2017);
         "P. Giannozzi et al., J. Chem. Phys. 152 154105 (2020);
          URL http://www.quantum-espresso.org", 
     in publications or presentations arising from this work. More details at
     http://www.quantum-espresso.org/quote

     Parallel version (MPI), running on     4 processors

     MPI processes distributed on     1 nodes
     5322 MiB available memory on the printing compute node when the environment starts

     Reading input from relax.in

     Current dimensions of program PWSCF are:
     Max number of different atomic species (ntypx) = 10
     Max number of k-points (npk) =  40000
     Max angular momentum in pseudopotentials (lmaxx) =  4
     file Mn.pbe-spn-kjpaw_psl.0.3.1.UPF: wavefunction(s)  3P 3D renormalized
     file S.pbe-n-kjpaw_psl.1.0.0.UPF: wavefunction(s)  3S 3P renormalized

     R & G space division:  proc/nbgrp/npool/nimage =       4
     Subspace diagonalization in iterative solution of the eigenvalue problem:
     a serial algorithm will be used


     Parallelization info
     --------------------
     sticks:   dense  smooth     PW     G-vecs:    dense   smooth      PW
     Min         139     112     37                 2198     1593     284
     Max         140     113     38                 2202     1594     285
     Sum         559     451    151                 8801     6375    1139

     Using Slab Decomposition



     bravais-lattice index     =           -5
     lattice parameter (alat)  =       7.3933  a.u.
     unit-cell volume          =     285.7574 (a.u.)^3
     number of atoms/cell      =            2
     number of atomic types    =            2
     number of electrons       =        21.00
     number of Kohn-Sham states=           15
     kinetic-energy cutoff     =      30.0000  Ry
     charge density cutoff     =     150.0000  Ry
     scf convergence threshold =      1.0E-10
     mixing beta               =       0.7000
     number of iterations used =            8  plain     mixing
     energy convergence thresh.=      1.0E-05
     force convergence thresh. =      1.0E-04
     Exchange-correlation= SLA  PW   PBX  PBC
                           (   1   4   3   4   0   0   0)
     nstep                     =           50


     celldm(1)=   7.393286  celldm(2)=   0.000000  celldm(3)=   0.000000
     celldm(4)=   0.500000  celldm(5)=   0.000000  celldm(6)=   0.000000

     crystal axes: (cart. coord. in units of alat)
               a(1) = (   0.000000   0.707107   0.707107 )  
               a(2) = (   0.707107   0.000000   0.707107 )  
               a(3) = (   0.707107   0.707107   0.000000 )  

     reciprocal axes: (cart. coord. in units 2 pi/alat)
               b(1) = ( -0.707107  0.707107  0.707107 )  
               b(2) = (  0.707107 -0.707107  0.707107 )  
               b(3) = (  0.707107  0.707107 -0.707107 )  


     PseudoPot. # 1 for Mn read from file:
     ./../../../pseudos/Mn.pbe-spn-kjpaw_psl.0.3.1.UPF
     MD5 check sum: ba19e6d7ccbc12830efad05ba8577d9c
     Pseudo is Projector augmented-wave + core cor, Zval = 15.0
     Generated using &quot;atomic&quot; code by A. Dal Corso  v.6.2.2
     Shape of augmentation charge: PSQ
     Using radial grid of 1187 points,  6 beta functions with: 
                l(1) =   0
                l(2) =   0
                l(3) =   1
                l(4) =   1
                l(5) =   2
                l(6) =   2
     Q(r) pseudized with 0 coefficients 


     PseudoPot. # 2 for S  read from file:
     ./../../../pseudos/S.pbe-n-kjpaw_psl.1.0.0.UPF
     MD5 check sum: fb45dfebcf3e72a4e1bd4a866ec2e262
     Pseudo is Projector augmented-wave + core cor, Zval =  6.0
     Generated using &quot;atomic&quot; code by A. Dal Corso  v.6.3
     Shape of augmentation charge: PSQ
     Using radial grid of 1151 points,  6 beta functions with: 
                l(1) =   0
                l(2) =   0
                l(3) =   1
                l(4) =   1
                l(5) =   2
                l(6) =   2
     Q(r) pseudized with 0 coefficients 


     atomic species   valence    mass     pseudopotential
     Mn               15.00    54.93800     Mn( 1.00)
     S                 6.00    32.06500     S ( 1.00)

     24 Sym. Ops. (no inversion) found


                                    s                        frac. trans.

      isym =  1     identity                                     

 cryst.   s( 1) = (     1          0          0      )
                  (     0          1          0      )
                  (     0          0          1      )

 cart.    s( 1) = (  1.0000000  0.0000000  0.0000000 )
                  (  0.0000000  1.0000000  0.0000000 )
                  (  0.0000000  0.0000000  1.0000000 )


      isym =  2     180 deg rotation - cart. axis [0,0,1]        

 cryst.   s( 2) = (     0          1         -1      )
                  (     1          0         -1      )
                  (     0          0         -1      )

 cart.    s( 2) = ( -1.0000000  0.0000000  0.0000000 )
                  (  0.0000000 -1.0000000  0.0000000 )
                  (  0.0000000  0.0000000  1.0000000 )


      isym =  3     180 deg rotation - cart. axis [0,1,0]        

 cryst.   s( 3) = (     0         -1          1      )
                  (     0         -1          0      )
                  (     1         -1          0      )

 cart.    s( 3) = ( -1.0000000  0.0000000  0.0000000 )
                  (  0.0000000  1.0000000  0.0000000 )
                  (  0.0000000  0.0000000 -1.0000000 )


      isym =  4     180 deg rotation - cart. axis [1,0,0]        

 cryst.   s( 4) = (    -1          0          0      )
                  (    -1          0          1      )
                  (    -1          1          0      )

 cart.    s( 4) = (  1.0000000  0.0000000  0.0000000 )
                  (  0.0000000 -1.0000000  0.0000000 )
                  (  0.0000000  0.0000000 -1.0000000 )


      isym =  5     120 deg rotation - cart. axis [-1,-1,-1]     

 cryst.   s( 5) = (     0          0          1      )
                  (     1          0          0      )
                  (     0          1          0      )

 cart.    s( 5) = (  0.0000000  1.0000000  0.0000000 )
                  (  0.0000000  0.0000000  1.0000000 )
                  (  1.0000000  0.0000000  0.0000000 )


      isym =  6     120 deg rotation - cart. axis [-1,1,1]       

 cryst.   s( 6) = (     1         -1          0      )
                  (     0         -1          1      )
                  (     0         -1          0      )

 cart.    s( 6) = (  0.0000000 -1.0000000  0.0000000 )
                  (  0.0000000  0.0000000  1.0000000 )
                  ( -1.0000000  0.0000000  0.0000000 )


      isym =  7     120 deg rotation - cart. axis [1,1,-1]       

 cryst.   s( 7) = (    -1          1          0      )
                  (    -1          0          0      )
                  (    -1          0          1      )

 cart.    s( 7) = (  0.0000000  1.0000000  0.0000000 )
                  (  0.0000000  0.0000000 -1.0000000 )
                  ( -1.0000000  0.0000000  0.0000000 )


      isym =  8     120 deg rotation - cart. axis [1,-1,1]       

 cryst.   s( 8) = (     0          0         -1      )
                  (     0          1         -1      )
                  (     1          0         -1      )

 cart.    s( 8) = (  0.0000000 -1.0000000  0.0000000 )
                  (  0.0000000  0.0000000 -1.0000000 )
                  (  1.0000000  0.0000000  0.0000000 )


      isym =  9     120 deg rotation - cart. axis [1,1,1]        

 cryst.   s( 9) = (     0          1          0      )
                  (     0          0          1      )
                  (     1          0          0      )

 cart.    s( 9) = (  0.0000000  0.0000000  1.0000000 )
                  (  1.0000000  0.0000000  0.0000000 )
                  (  0.0000000  1.0000000  0.0000000 )


      isym = 10     120 deg rotation - cart. axis [-1,1,-1]      

 cryst.   s(10) = (    -1          0          1      )
                  (    -1          1          0      )
                  (    -1          0          0      )

 cart.    s(10) = (  0.0000000  0.0000000  1.0000000 )
                  ( -1.0000000  0.0000000  0.0000000 )
                  (  0.0000000 -1.0000000  0.0000000 )


      isym = 11     120 deg rotation - cart. axis [1,-1,-1]      

 cryst.   s(11) = (     1          0         -1      )
                  (     0          0         -1      )
                  (     0          1         -1      )

 cart.    s(11) = (  0.0000000  0.0000000 -1.0000000 )
                  ( -1.0000000  0.0000000  0.0000000 )
                  (  0.0000000  1.0000000  0.0000000 )


      isym = 12     120 deg rotation - cart. axis [-1,-1,1]      

 cryst.   s(12) = (     0         -1          0      )
                  (     1         -1          0      )
                  (     0         -1          1      )

 cart.    s(12) = (  0.0000000  0.0000000 -1.0000000 )
                  (  1.0000000  0.0000000  0.0000000 )
                  (  0.0000000 -1.0000000  0.0000000 )


      isym = 13     inv. 180 deg rotation - cart. axis [1,1,0]   

 cryst.   s(13) = (     1          0         -1      )
                  (     0          1         -1      )
                  (     0          0         -1      )

 cart.    s(13) = (  0.0000000 -1.0000000  0.0000000 )
                  ( -1.0000000  0.0000000  0.0000000 )
                  (  0.0000000  0.0000000  1.0000000 )


      isym = 14     inv. 180 deg rotation - cart. axis [1,-1,0]  

 cryst.   s(14) = (     0          1          0      )
                  (     1          0          0      )
                  (     0          0          1      )

 cart.    s(14) = (  0.0000000  1.0000000  0.0000000 )
                  (  1.0000000  0.0000000  0.0000000 )
                  (  0.0000000  0.0000000  1.0000000 )


      isym = 15     inv.  90 deg rotation - cart. axis [0,0,-1]  

 cryst.   s(15) = (     0         -1          0      )
                  (     0         -1          1      )
                  (     1         -1          0      )

 cart.    s(15) = (  0.0000000 -1.0000000  0.0000000 )
                  (  1.0000000  0.0000000  0.0000000 )
                  (  0.0000000  0.0000000 -1.0000000 )


      isym = 16     inv.  90 deg rotation - cart. axis [0,0,1]   

 cryst.   s(16) = (    -1          0          1      )
                  (    -1          0          0      )
                  (    -1          1          0      )

 cart.    s(16) = (  0.0000000  1.0000000  0.0000000 )
                  ( -1.0000000  0.0000000  0.0000000 )
                  (  0.0000000  0.0000000 -1.0000000 )


      isym = 17     inv. 180 deg rotation - cart. axis [1,0,1]   

 cryst.   s(17) = (     1         -1          0      )
                  (     0         -1          0      )
                  (     0         -1          1      )

 cart.    s(17) = (  0.0000000  0.0000000 -1.0000000 )
                  (  0.0000000  1.0000000  0.0000000 )
                  ( -1.0000000  0.0000000  0.0000000 )


      isym = 18     inv. 180 deg rotation - cart. axis [-1,0,1]  

 cryst.   s(18) = (     0          0          1      )
                  (     0          1          0      )
                  (     1          0          0      )

 cart.    s(18) = (  0.0000000  0.0000000  1.0000000 )
                  (  0.0000000  1.0000000  0.0000000 )
                  (  1.0000000  0.0000000  0.0000000 )


      isym = 19     inv.  90 deg rotation - cart. axis [0,1,0]   

 cryst.   s(19) = (     0          0         -1      )
                  (     1          0         -1      )
                  (     0          1         -1      )

 cart.    s(19) = (  0.0000000  0.0000000 -1.0000000 )
                  (  0.0000000 -1.0000000  0.0000000 )
                  (  1.0000000  0.0000000  0.0000000 )


      isym = 20     inv.  90 deg rotation - cart. axis [0,-1,0]  

 cryst.   s(20) = (    -1          1          0      )
                  (    -1          0          1      )
                  (    -1          0          0      )

 cart.    s(20) = (  0.0000000  0.0000000  1.0000000 )
                  (  0.0000000 -1.0000000  0.0000000 )
                  ( -1.0000000  0.0000000  0.0000000 )


      isym = 21     inv. 180 deg rotation - cart. axis [0,1,1]   

 cryst.   s(21) = (    -1          0          0      )
                  (    -1          1          0      )
                  (    -1          0          1      )

 cart.    s(21) = (  1.0000000  0.0000000  0.0000000 )
                  (  0.0000000  0.0000000 -1.0000000 )
                  (  0.0000000 -1.0000000  0.0000000 )


      isym = 22     inv. 180 deg rotation - cart. axis [0,1,-1]  

 cryst.   s(22) = (     1          0          0      )
                  (     0          0          1      )
                  (     0          1          0      )

 cart.    s(22) = (  1.0000000  0.0000000  0.0000000 )
                  (  0.0000000  0.0000000  1.0000000 )
                  (  0.0000000  1.0000000  0.0000000 )


      isym = 23     inv.  90 deg rotation - cart. axis [-1,0,0]  

 cryst.   s(23) = (     0          1         -1      )
                  (     0          0         -1      )
                  (     1          0         -1      )

 cart.    s(23) = ( -1.0000000  0.0000000  0.0000000 )
                  (  0.0000000  0.0000000 -1.0000000 )
                  (  0.0000000  1.0000000  0.0000000 )


      isym = 24     inv.  90 deg rotation - cart. axis [1,0,0]   

 cryst.   s(24) = (     0         -1          1      )
                  (     1         -1          0      )
                  (     0         -1          0      )

 cart.    s(24) = ( -1.0000000  0.0000000  0.0000000 )
                  (  0.0000000  0.0000000  1.0000000 )
                  (  0.0000000 -1.0000000  0.0000000 )


     point group T_d (-43m) 
     there are  5 classes
     the character table:

       E     8C3   3C2   6S4   6s_d 
A_1    1.00  1.00  1.00  1.00  1.00
A_2    1.00  1.00  1.00 -1.00 -1.00
E      2.00 -1.00  2.00  0.00  0.00
T_1    3.00  0.00 -1.00  1.00 -1.00
T_2    3.00  0.00 -1.00 -1.00  1.00

     the symmetry operations in each class and the name of the first element:

     E        1
          identity                                               
     8C3      5    7    8    6   12    9   10   11
          120 deg rotation - cart. axis [-1,-1,-1]               
     3C2      2    3    4
          180 deg rotation - cart. axis [0,0,1]                  
     6S4     15   16   20   19   23   24
          inv.  90 deg rotation - cart. axis [0,0,-1]            
     6s_d    13   14   17   18   21   22
          inv. 180 deg rotation - cart. axis [1,1,0]             

   Cartesian axes

     site n.     atom                  positions (alat units)
         1        Mn     tau(   1) = (   1.0606602   1.0606602   1.0606602  )
         2        S      tau(   2) = (   0.0000000   0.0000000   0.0000000  )

   Crystallographic axes

     site n.     atom                  positions (cryst. coord.)
         1        Mn     tau(   1) = (  0.7500000  0.7500000  0.7500000  )
         2        S      tau(   2) = (  0.0000000  0.0000000  0.0000000  )

     number of k points=    10  Gaussian smearing, width (Ry)=  0.0100
                       cart. coord. in units 2pi/alat
        k(    1) = (   0.0000000   0.0000000   0.0000000), wk =   0.0160000
        k(    2) = (   0.1414214   0.1414214  -0.1414214), wk =   0.1280000
        k(    3) = (   0.2828427   0.2828427  -0.2828427), wk =   0.1280000
        k(    4) = (   0.2828427   0.0000000   0.0000000), wk =   0.0960000
        k(    5) = (   0.4242641   0.1414214  -0.1414214), wk =   0.3840000
        k(    6) = (  -0.1414214  -0.4242641   0.4242641), wk =   0.3840000
        k(    7) = (   0.0000000  -0.2828427   0.2828427), wk =   0.1920000
        k(    8) = (   0.5656854   0.0000000   0.0000000), wk =   0.0960000
        k(    9) = (   0.0000000  -0.5656854   0.5656854), wk =   0.1920000
        k(   10) = (  -0.1414214  -0.4242641   0.7071068), wk =   0.3840000

                       cryst. coord.
        k(    1) = (   0.0000000   0.0000000   0.0000000), wk =   0.0160000
        k(    2) = (   0.0000000   0.0000000   0.2000000), wk =   0.1280000
        k(    3) = (   0.0000000   0.0000000   0.4000000), wk =   0.1280000
        k(    4) = (   0.0000000   0.2000000   0.2000000), wk =   0.0960000
        k(    5) = (   0.0000000   0.2000000   0.4000000), wk =   0.3840000
        k(    6) = (   0.0000000   0.2000000  -0.4000000), wk =   0.3840000
        k(    7) = (   0.0000000   0.2000000  -0.2000000), wk =   0.1920000
        k(    8) = (   0.0000000   0.4000000   0.4000000), wk =   0.0960000
        k(    9) = (   0.0000000   0.4000000  -0.4000000), wk =   0.1920000
        k(   10) = (   0.2000000   0.4000000  -0.4000000), wk =   0.3840000

     Dense  grid:     8801 G-vectors     FFT dimensions: (  30,  30,  30)

     Smooth grid:     6375 G-vectors     FFT dimensions: (  25,  25,  25)

     Dynamical RAM for                 wfc:       0.05 MB

     Dynamical RAM for     wfc (w. buffer):       0.50 MB

     Dynamical RAM for           str. fact:       0.07 MB

     Dynamical RAM for           local pot:       0.00 MB

     Dynamical RAM for          nlocal pot:       0.11 MB

     Dynamical RAM for                qrad:       1.97 MB

     Dynamical RAM for          rho,v,vnew:       0.27 MB

     Dynamical RAM for               rhoin:       0.09 MB

     Dynamical RAM for            rho*nmix:       0.54 MB

     Dynamical RAM for           G-vectors:       0.14 MB

     Dynamical RAM for          h,s,v(r/c):       0.04 MB

     Dynamical RAM for          <psi|beta>:       0.01 MB

     Dynamical RAM for                 psi:       0.09 MB

     Dynamical RAM for                hpsi:       0.09 MB

     Dynamical RAM for                spsi:       0.09 MB

     Dynamical RAM for      wfcinit/wfcrot:       0.10 MB

     Dynamical RAM for           addusdens:       6.28 MB

     Dynamical RAM for          addusforce:       6.30 MB

     Estimated static dynamical RAM per process >       3.51 MB

     Estimated max dynamical RAM per process >      10.34 MB

     Estimated total dynamical RAM >      41.38 MB

     Check: negative core charge=   -0.000237

     Initial potential from superposition of free atoms

     starting charge      20.9995, renormalised to      21.0000
     Starting wfcs are   14 randomized atomic wfcs +    1 random wfcs
     Checking if some PAW data can be deallocated... 
       PAW data deallocated on    2 nodes for type:  1
       PAW data deallocated on    2 nodes for type:  2

     total cpu time spent up to now is        0.5 secs

     Self-consistent Calculation

     iteration #  1     ecut=    30.00 Ry     beta= 0.70
     Davidson diagonalization with overlap

---- Real-time Memory Report at c_bands before calling an iterative solver
            42 MiB given to the printing process from OS
             0 MiB allocation reported by mallinfo(arena+hblkhd)
          5235 MiB available memory on the node where the printing process lives
------------------
     ethr =  1.00E-02,  avg # of iterations =  4.8

     Threshold (ethr) on eigenvalues was too large:
     Diagonalizing with lowered threshold

     Davidson diagonalization with overlap

---- Real-time Memory Report at c_bands before calling an iterative solver
            42 MiB given to the printing process from OS
             0 MiB allocation reported by mallinfo(arena+hblkhd)
          5234 MiB available memory on the node where the printing process lives
------------------
     ethr =  3.47E-04,  avg # of iterations =  2.7

     total cpu time spent up to now is        0.8 secs

     total energy              =    -352.64877565 Ry
     estimated scf accuracy    <       0.06705748 Ry

     iteration #  2     ecut=    30.00 Ry     beta= 0.70
     Davidson diagonalization with overlap

---- Real-time Memory Report at c_bands before calling an iterative solver
            44 MiB given to the printing process from OS
             0 MiB allocation reported by mallinfo(arena+hblkhd)
          5232 MiB available memory on the node where the printing process lives
------------------
     ethr =  3.19E-04,  avg # of iterations =  2.2

     total cpu time spent up to now is        1.0 secs

     total energy              =    -352.62211616 Ry
     estimated scf accuracy    <       0.17696597 Ry

     iteration #  3     ecut=    30.00 Ry     beta= 0.70
     Davidson diagonalization with overlap

---- Real-time Memory Report at c_bands before calling an iterative solver
            44 MiB given to the printing process from OS
             0 MiB allocation reported by mallinfo(arena+hblkhd)
          5232 MiB available memory on the node where the printing process lives
------------------
     ethr =  3.19E-04,  avg # of iterations =  2.4

     total cpu time spent up to now is        1.1 secs

     total energy              =    -352.65546191 Ry
     estimated scf accuracy    <       0.04203549 Ry

     iteration #  4     ecut=    30.00 Ry     beta= 0.70
     Davidson diagonalization with overlap

---- Real-time Memory Report at c_bands before calling an iterative solver
            44 MiB given to the printing process from OS
             0 MiB allocation reported by mallinfo(arena+hblkhd)
          5232 MiB available memory on the node where the printing process lives
------------------
     ethr =  2.00E-04,  avg # of iterations =  1.1

     total cpu time spent up to now is        1.2 secs

     total energy              =    -352.66100349 Ry
     estimated scf accuracy    <       0.00035242 Ry

     iteration #  5     ecut=    30.00 Ry     beta= 0.70
     Davidson diagonalization with overlap

---- Real-time Memory Report at c_bands before calling an iterative solver
            44 MiB given to the printing process from OS
             0 MiB allocation reported by mallinfo(arena+hblkhd)
          5231 MiB available memory on the node where the printing process lives
------------------
     c_bands:  1 eigenvalues not converged
     ethr =  1.68E-06,  avg # of iterations =  6.5

     total cpu time spent up to now is        1.4 secs

     total energy              =    -352.66110650 Ry
     estimated scf accuracy    <       0.00002939 Ry

     iteration #  6     ecut=    30.00 Ry     beta= 0.70
     Davidson diagonalization with overlap

---- Real-time Memory Report at c_bands before calling an iterative solver
            45 MiB given to the printing process from OS
             0 MiB allocation reported by mallinfo(arena+hblkhd)
          5231 MiB available memory on the node where the printing process lives
------------------
     ethr =  1.40E-07,  avg # of iterations =  2.3

     total cpu time spent up to now is        1.6 secs

     total energy              =    -352.66111198 Ry
     estimated scf accuracy    <       0.00000701 Ry

     iteration #  7     ecut=    30.00 Ry     beta= 0.70
     Davidson diagonalization with overlap

---- Real-time Memory Report at c_bands before calling an iterative solver
            45 MiB given to the printing process from OS
             0 MiB allocation reported by mallinfo(arena+hblkhd)
          5231 MiB available memory on the node where the printing process lives
------------------
     ethr =  3.34E-08,  avg # of iterations =  2.1

     total cpu time spent up to now is        1.7 secs

     total energy              =    -352.66111333 Ry
     estimated scf accuracy    <       0.00000009 Ry

     iteration #  8     ecut=    30.00 Ry     beta= 0.70
     Davidson diagonalization with overlap

---- Real-time Memory Report at c_bands before calling an iterative solver
            45 MiB given to the printing process from OS
             0 MiB allocation reported by mallinfo(arena+hblkhd)
          5231 MiB available memory on the node where the printing process lives
------------------
     ethr =  4.46E-10,  avg # of iterations =  3.9

     total cpu time spent up to now is        1.9 secs

     total energy              =    -352.66111338 Ry
     estimated scf accuracy    <       0.00000003 Ry

     iteration #  9     ecut=    30.00 Ry     beta= 0.70
     Davidson diagonalization with overlap

---- Real-time Memory Report at c_bands before calling an iterative solver
            45 MiB given to the printing process from OS
             0 MiB allocation reported by mallinfo(arena+hblkhd)
          5231 MiB available memory on the node where the printing process lives
------------------
     ethr =  1.34E-10,  avg # of iterations =  1.9

     total cpu time spent up to now is        2.1 secs

     total energy              =    -352.66111338 Ry
     estimated scf accuracy    <          2.9E-10 Ry

     iteration # 10     ecut=    30.00 Ry     beta= 0.70
     Davidson diagonalization with overlap

---- Real-time Memory Report at c_bands before calling an iterative solver
            45 MiB given to the printing process from OS
             0 MiB allocation reported by mallinfo(arena+hblkhd)
          5238 MiB available memory on the node where the printing process lives
------------------
     ethr =  1.36E-12,  avg # of iterations =  4.1

     total cpu time spent up to now is        2.2 secs

     End of self-consistent calculation

          k = 0.0000 0.0000 0.0000 (   821 PWs)   bands (ev):

   -72.2266 -40.9670 -40.9670 -40.9670  -6.5654   3.5133   3.5133   3.5133
     6.6881   6.6881   9.2797   9.2797   9.2797   9.3420  14.0796

     occupation numbers 
     1.0000   1.0000   1.0000   1.0000   1.0000   1.0000   1.0000   1.0000
     1.0000   1.0000   0.0000   0.0000   0.0000   0.0000   0.0000

          k = 0.1414 0.1414-0.1414 (   800 PWs)   bands (ev):

   -72.2263 -40.9682 -40.9669 -40.9669  -6.3567   2.9323   3.5837   3.5837
     6.6971   6.6971   8.1737   9.0076   9.0076  10.6224  13.8878

     occupation numbers 
     1.0000   1.0000   1.0000   1.0000   1.0000   1.0000   1.0000   1.0000
     1.0000   1.0000   0.0000   0.0000   0.0000   0.0000   0.0000

          k = 0.2828 0.2828-0.2828 (   796 PWs)   bands (ev):

   -72.2261 -40.9703 -40.9673 -40.9673  -5.9846   2.1301   3.6570   3.6570
     6.8003   6.8003   7.1429   8.4246   8.4246  11.3982  14.6685

     occupation numbers 
     1.0000   1.0000   1.0000   1.0000   1.0000   1.0000   1.0000   1.0000
     1.0000   1.0000   0.7372   0.0000   0.0000   0.0000   0.0000

          k = 0.2828 0.0000 0.0000 (   801 PWs)   bands (ev):

   -72.2263 -40.9681 -40.9673 -40.9673  -6.2883   2.8590   3.5788   3.5788
     6.4737   6.8341   8.5304   8.5409   8.5409  10.9936  13.2155

     occupation numbers 
     1.0000   1.0000   1.0000   1.0000   1.0000   1.0000   1.0000   1.0000
     1.0000   0.9999   0.0000   0.0000   0.0000   0.0000   0.0000

          k = 0.4243 0.1414-0.1414 (   797 PWs)   bands (ev):

   -72.2261 -40.9697 -40.9679 -40.9676  -5.9672   2.3660   3.4900   3.6533
     6.4572   6.9544   7.3018   8.0144   8.2260  12.0239  13.5690

     occupation numbers 
     1.0000   1.0000   1.0000   1.0000   1.0000   1.0000   1.0000   1.0000
     1.0000   0.9953   0.1547   0.0000   0.0000   0.0000   0.0000

          k =-0.1414-0.4243 0.4243 (   785 PWs)   bands (ev):

   -72.2260 -40.9702 -40.9682 -40.9675  -5.8326   2.3034   3.2269   3.7178
     6.6102   6.7827   7.0966   7.7893   8.2213  12.5117  13.6537

     occupation numbers 
     1.0000   1.0000   1.0000   1.0000   1.0000   1.0000   1.0000   1.0000
     1.0000   1.0000   0.8677   0.0000   0.0000   0.0000   0.0000

          k = 0.0000-0.2828 0.2828 (   797 PWs)   bands (ev):

   -72.2262 -40.9692 -40.9679 -40.9671  -6.0901   2.5696   3.3801   3.6736
     6.5750   6.8729   7.5875   7.9399   8.8069  12.0797  14.0210

     occupation numbers 
     1.0000   1.0000   1.0000   1.0000   1.0000   1.0000   1.0000   1.0000
     1.0000   0.9997   0.0000   0.0000   0.0000   0.0000   0.0000

          k = 0.5657 0.0000 0.0000 (   789 PWs)   bands (ev):

   -72.2260 -40.9702 -40.9681 -40.9681  -5.7968   2.1095   3.7196   3.7196
     6.2437   7.0518   7.3351   7.5783   7.5783  11.3933  13.0604

     occupation numbers 
     1.0000   1.0000   1.0000   1.0000   1.0000   1.0000   1.0000   1.0000
     1.0000   0.9431   0.0864   0.0000   0.0000   0.0000   0.0000

          k = 0.0000-0.5657 0.5657 (   794 PWs)   bands (ev):

   -72.2260 -40.9703 -40.9688 -40.9682  -5.7122   2.2630   3.2979   3.7441
     6.2566   6.8996   6.9135   7.5834   7.6565  11.9681  13.6500

     occupation numbers 
     1.0000   1.0000   1.0000   1.0000   1.0000   1.0000   1.0000   1.0000
     1.0000   0.9992   0.9987   0.0000   0.0000   0.0000   0.0000

          k =-0.1414-0.4243 0.7071 (   794 PWs)   bands (ev):

   -72.2260 -40.9701 -40.9688 -40.9681  -5.7604   2.4785   3.0823   3.6869
     6.3963   6.6527   7.1118   7.4623   8.0283  12.8913  14.0454

     occupation numbers 
     1.0000   1.0000   1.0000   1.0000   1.0000   1.0000   1.0000   1.0000
     1.0000   1.0000   0.8310   0.0036   0.0000   0.0000   0.0000

     the Fermi energy is     7.2040 ev

!    total energy              =    -352.66111338 Ry
     total all-electron energy =     -3115.519517 Ry
     estimated scf accuracy    <          1.1E-11 Ry
     smearing contrib. (-TS)   =      -0.00247058 Ry
     internal energy E=F+TS    =    -352.65864281 Ry

     The total energy is F=E-TS. E is the sum of the following terms:
     one-electron contribution =    -152.56959920 Ry
     hartree contribution      =      84.53557029 Ry
     xc contribution           =     -32.67691860 Ry
     ewald contribution        =    -128.25534586 Ry
     one-center paw contrib.   =    -123.69234944 Ry
      -> PAW hartree energy AE =     177.11835218 Ry
      -> PAW hartree energy PS =    -178.02940385 Ry
      -> PAW xc energy AE      =    -104.23515848 Ry
      -> PAW xc energy PS      =      27.56969889 Ry
      -> total E_H with PAW    =      83.62451863 Ry
      -> total E_XC with PAW   =    -109.34237819 Ry

     convergence has been achieved in  10 iterations

     Forces acting on atoms (cartesian axes, Ry/au):

     atom    1 type  1   force =     0.00000000    0.00000000    0.00000000
     atom    2 type  2   force =     0.00000000    0.00000000    0.00000000
     The non-local contrib.  to forces
     atom    1 type  1   force =     0.00000000    0.00000000   -0.00000000
     atom    2 type  2   force =     0.00000000   -0.00000000   -0.00000000
     The ionic contribution  to forces
     atom    1 type  1   force =    -0.00000000   -0.00000000   -0.00000000
     atom    2 type  2   force =     0.00000000   -0.00000000    0.00000000
     The local contribution  to forces
     atom    1 type  1   force =     0.00000000    0.00000000    0.00000000
     atom    2 type  2   force =    -0.00000000   -0.00000000    0.00000000
     The core correction contribution to forces
     atom    1 type  1   force =     0.00000000    0.00000000    0.00000000
     atom    2 type  2   force =     0.00000000    0.00000000   -0.00000000
     The Hubbard contrib.    to forces
     atom    1 type  1   force =     0.00000000    0.00000000    0.00000000
     atom    2 type  2   force =     0.00000000    0.00000000    0.00000000
     The SCF correction term to forces
     atom    1 type  1   force =     0.00000000    0.00000000    0.00000000
     atom    2 type  2   force =    -0.00000000   -0.00000000   -0.00000000

     Total force =     0.000000     Total SCF correction =     0.000000

     BFGS Geometry Optimization
     Energy error            =      0.0E+00 Ry
     Gradient error          =      0.0E+00 Ry/Bohr

     bfgs converged in   1 scf cycles and   0 bfgs steps
     (criteria: energy <  1.0E-05 Ry, force <  1.0E-04 Ry/Bohr)

     End of BFGS Geometry Optimization

     Final energy             =    -352.6611133823 Ry
Begin final coordinates

ATOMIC_POSITIONS (crystal)
Mn               0.7500000000        0.7500000000        0.7500000000
S                0.0000000000        0.0000000000        0.0000000000
End final coordinates



     Writing all to output data dir ./temp/mns.save/ :
     XML data file, charge density, pseudopotentials, collected wavefunctions

     init_run     :      0.30s CPU      0.37s WALL (       1 calls)
     electrons    :      1.60s CPU      1.69s WALL (       1 calls)
     forces       :      0.03s CPU      0.03s WALL (       1 calls)

     Called by init_run:
     wfcinit      :      0.02s CPU      0.07s WALL (       1 calls)
     wfcinit:atom :      0.00s CPU      0.00s WALL (      10 calls)
     wfcinit:wfcr :      0.02s CPU      0.07s WALL (      10 calls)
     potinit      :      0.08s CPU      0.09s WALL (       1 calls)
     hinit0       :      0.18s CPU      0.18s WALL (       1 calls)

     Called by electrons:
     c_bands      :      0.63s CPU      0.69s WALL (      11 calls)
     sum_band     :      0.24s CPU      0.26s WALL (      11 calls)
     v_of_rho     :      0.03s CPU      0.03s WALL (      11 calls)
     v_h          :      0.00s CPU      0.00s WALL (      11 calls)
     v_xc         :      0.03s CPU      0.03s WALL (      12 calls)
     newd         :      0.14s CPU      0.14s WALL (      11 calls)
     PAW_pot      :      0.63s CPU      0.64s WALL (      11 calls)
     mix_rho      :      0.00s CPU      0.00s WALL (      11 calls)

     Called by c_bands:
     init_us_2    :      0.01s CPU      0.01s WALL (     240 calls)
     cegterg      :      0.60s CPU      0.66s WALL (     110 calls)

     Called by sum_band:
     sum_band:wei :      0.00s CPU      0.00s WALL (      11 calls)
     sum_band:loo :      0.07s CPU      0.09s WALL (      11 calls)
     sum_band:buf :      0.00s CPU      0.00s WALL (     110 calls)
     sum_band:ini :      0.01s CPU      0.01s WALL (     110 calls)
     sum_band:cal :      0.01s CPU      0.02s WALL (     110 calls)
     sum_band:bec :      0.00s CPU      0.00s WALL (     110 calls)
     addusdens    :      0.16s CPU      0.16s WALL (      11 calls)
                                        0.00s GPU  (      11 calls)
     addusd:skk   :      0.00s CPU      0.00s WALL (      22 calls)
                                        0.00s GPU  (      22 calls)

     Called by *egterg:
     cdiaghg      :      0.08s CPU      0.14s WALL (     440 calls)
     cegterg:over :      0.04s CPU      0.04s WALL (     340 calls)
     cegterg:upda :      0.02s CPU      0.02s WALL (     340 calls)
     cegterg:last :      0.04s CPU      0.04s WALL (     217 calls)
     h_psi        :      0.39s CPU      0.42s WALL (     460 calls)
     s_psi        :      0.04s CPU      0.04s WALL (     460 calls)
     g_psi        :      0.00s CPU      0.00s WALL (     340 calls)

     Called by h_psi:
     h_psi:calbec :      0.04s CPU      0.04s WALL (     460 calls)
     vloc_psi     :      0.31s CPU      0.33s WALL (     460 calls)
     add_vuspsi   :      0.04s CPU      0.04s WALL (     460 calls)

     General routines
     calbec       :      0.06s CPU      0.06s WALL (     610 calls)
     fft          :      0.08s CPU      0.08s WALL (     153 calls)
     ffts         :      0.02s CPU      0.02s WALL (      22 calls)
     fftw         :      0.32s CPU      0.35s WALL (   10000 calls)
     interpolate  :      0.02s CPU      0.02s WALL (      11 calls)

     Parallel routines

     PAW routines
     PAW_pot      :      0.63s CPU      0.64s WALL (      11 calls)
     PAW_symme    :      0.00s CPU      0.00s WALL (      22 calls)

     PWSCF        :      2.11s CPU      2.27s WALL


   This run was terminated on:  22:55: 1  17Jan2025            

=------------------------------------------------------------------------------=
   JOB DONE.
=------------------------------------------------------------------------------=
