
     Program PWSCF v.7.3.1 starts on 18Jan2025 at  0:38:18 

     This program is part of the open-source Quantum ESPRESSO suite
     for quantum simulation of materials; please cite
         "P. Giannozzi et al., J. Phys.:Condens. Matter 21 395502 (2009);
         "P. Giannozzi et al., J. Phys.:Condens. Matter 29 465901 (2017);
         "P. Giannozzi et al., J. Chem. Phys. 152 154105 (2020);
          URL http://www.quantum-espresso.org", 
     in publications or presentations arising from this work. More details at
     http://www.quantum-espresso.org/quote

     Parallel version (MPI), running on     6 processors

     MPI processes distributed on     1 nodes
     2113 MiB available memory on the printing compute node when the environment starts

     Reading input from relax.in

     Current dimensions of program PWSCF are:
     Max number of different atomic species (ntypx) = 10
     Max number of k-points (npk) =  40000
     Max angular momentum in pseudopotentials (lmaxx) =  4
     file Mn.pbe-spn-kjpaw_psl.0.3.1.UPF: wavefunction(s)  3P 3D renormalized
     file Mn.pbe-spn-kjpaw_psl.0.3.1.UPF: wavefunction(s)  3P 3D renormalized
     file S.pbe-n-kjpaw_psl.1.0.0.UPF: wavefunction(s)  3S 3P renormalized
     Message from routine setup:
     using ibrav=0 with symmetry is DISCOURAGED, use correct ibrav instead

     R & G space division:  proc/nbgrp/npool/nimage =       6
     Subspace diagonalization in iterative solution of the eigenvalue problem:
     a serial algorithm will be used


     Parallelization info
     --------------------
     sticks:   dense  smooth     PW     G-vecs:    dense   smooth      PW
     Min         185     150     48                 2941     2116     382
     Max         188     151     50                 2942     2117     383
     Sum        1121     901    295                17651    12697    2297

     Using Slab Decomposition



     bravais-lattice index     =            0
     lattice parameter (alat)  =      14.7866  a.u.
     unit-cell volume          =     571.5148 (a.u.)^3
     number of atoms/cell      =            4
     number of atomic types    =            3
     number of electrons       =        42.00
     number of Kohn-Sham states=           25
     kinetic-energy cutoff     =      30.0000  Ry
     charge density cutoff     =     150.0000  Ry
     scf convergence threshold =      1.0E-10
     mixing beta               =       0.7000
     number of iterations used =            8  plain     mixing
     energy convergence thresh.=      1.0E-05
     force convergence thresh. =      1.0E-04
     Exchange-correlation= SLA  PW   PBX  PBC
                           (   1   4   3   4   0   0   0)
     nstep                     =           50


     celldm(1)=  14.786571  celldm(2)=   0.000000  celldm(3)=   0.000000
     celldm(4)=   0.000000  celldm(5)=   0.000000  celldm(6)=   0.000000

     crystal axes: (cart. coord. in units of alat)
               a(1) = (   1.000000   0.000000   0.000000 )  
               a(2) = (   0.250000   0.433013   0.000000 )  
               a(3) = (   0.250000   0.144338   0.408248 )  

     reciprocal axes: (cart. coord. in units 2 pi/alat)
               b(1) = (  1.000000 -0.577350 -0.408248 )  
               b(2) = (  0.000000  2.309401 -0.816496 )  
               b(3) = (  0.000000  0.000000  2.449490 )  


     PseudoPot. # 1 for Mn read from file:
     ./../../../pseudos/Mn.pbe-spn-kjpaw_psl.0.3.1.UPF
     MD5 check sum: ba19e6d7ccbc12830efad05ba8577d9c
     Pseudo is Projector augmented-wave + core cor, Zval = 15.0
     Generated using &quot;atomic&quot; code by A. Dal Corso  v.6.2.2
     Shape of augmentation charge: PSQ
     Using radial grid of 1187 points,  6 beta functions with: 
                l(1) =   0
                l(2) =   0
                l(3) =   1
                l(4) =   1
                l(5) =   2
                l(6) =   2
     Q(r) pseudized with 0 coefficients 


     PseudoPot. # 2 for Mn read from file:
     ./../../../pseudos/Mn.pbe-spn-kjpaw_psl.0.3.1.UPF
     MD5 check sum: ba19e6d7ccbc12830efad05ba8577d9c
     Pseudo is Projector augmented-wave + core cor, Zval = 15.0
     Generated using &quot;atomic&quot; code by A. Dal Corso  v.6.2.2
     Shape of augmentation charge: PSQ
     Using radial grid of 1187 points,  6 beta functions with: 
                l(1) =   0
                l(2) =   0
                l(3) =   1
                l(4) =   1
                l(5) =   2
                l(6) =   2
     Q(r) pseudized with 0 coefficients 


     PseudoPot. # 3 for S  read from file:
     ./../../../pseudos/S.pbe-n-kjpaw_psl.1.0.0.UPF
     MD5 check sum: fb45dfebcf3e72a4e1bd4a866ec2e262
     Pseudo is Projector augmented-wave + core cor, Zval =  6.0
     Generated using &quot;atomic&quot; code by A. Dal Corso  v.6.3
     Shape of augmentation charge: PSQ
     Using radial grid of 1151 points,  6 beta functions with: 
                l(1) =   0
                l(2) =   0
                l(3) =   1
                l(4) =   1
                l(5) =   2
                l(6) =   2
     Q(r) pseudized with 0 coefficients 


     atomic species   valence    mass     pseudopotential
     Mn1              15.00    54.93800     Mn( 1.00)
     Mn2              15.00    54.93800     Mn( 1.00)
     S                 6.00    32.06500     S ( 1.00)

     Starting magnetic structure 
     atomic species   magnetization
     Mn1             0.200
     Mn2            -0.200
     S               0.000

      2 Sym. Ops. (no inversion) found


                                    s                        frac. trans.

      isym =  1     identity                                     

 cryst.   s( 1) = (     1          0          0      )
                  (     0          1          0      )
                  (     0          0          1      )

 cart.    s( 1) = (  1.0000000  0.0000000  0.0000000 )
                  (  0.0000000  1.0000000  0.0000000 )
                  (  0.0000000  0.0000000  1.0000000 )


      isym =  2     inv. 180 deg rotation - cryst. axis [1,1,0]  

 cryst.   s( 2) = (     1         -2          0      )
                  (     0         -1          0      )
                  (     0         -1          1      )

 cart.    s( 2) = (  0.5000001 -0.8660253 -0.0000000 )
                  ( -0.8660254 -0.5000001 -0.0000001 )
                  (  0.0000000  0.0000000  1.0000000 )


   Cartesian axes

     site n.     atom                  positions (alat units)
         1        Mn1    tau(   1) = (   0.7500000   0.4330127   0.3061862  )
         2        Mn2    tau(   2) = (   1.2500000   0.4330127   0.3061862  )
         3        S      tau(   3) = (   0.0000000   0.0000000   0.0000000  )
         4        S      tau(   4) = (   0.5000000   0.0000000   0.0000000  )

   Crystallographic axes

     site n.     atom                  positions (cryst. coord.)
         1        Mn1    tau(   1) = (  0.3750000  0.7500000  0.7500000  )
         2        Mn2    tau(   2) = (  0.8750000  0.7500000  0.7500000  )
         3        S      tau(   3) = (  0.0000000  0.0000000  0.0000000  )
         4        S      tau(   4) = (  0.5000000  0.0000000  0.0000000  )

     number of k points=    38  Gaussian smearing, width (Ry)=  0.0100
                       cart. coord. in units 2pi/alat
        k(    1) = (   0.0000000   0.0000000   0.0000000), wk =   0.0133333
        k(    2) = (   0.0000000   0.0000000   0.4898979), wk =   0.0266667
        k(    3) = (   0.0000000   0.0000000   0.9797958), wk =   0.0266667
        k(    4) = (   0.0000000   0.4618802  -0.1632993), wk =   0.0266667
        k(    5) = (   0.0000000   0.4618802   0.3265986), wk =   0.0266667
        k(    6) = (   0.0000000   0.4618802   0.8164966), wk =   0.0266667
        k(    7) = (   0.0000000   0.4618802  -1.1430951), wk =   0.0266667
        k(    8) = (   0.0000000   0.4618802  -0.6531972), wk =   0.0266667
        k(    9) = (   0.0000000   0.9237604  -0.3265986), wk =   0.0266667
        k(   10) = (   0.0000000   0.9237604   0.1632993), wk =   0.0266667
        k(   11) = (   0.0000000   0.9237604   0.6531973), wk =   0.0266667
        k(   12) = (   0.0000000   0.9237604  -1.3063944), wk =   0.0266667
        k(   13) = (   0.0000000   0.9237604  -0.8164965), wk =   0.0266667
        k(   14) = (   0.3333333  -0.1924501  -0.1360827), wk =   0.0266667
        k(   15) = (   0.3333333  -0.1924501   0.3538152), wk =   0.0266667
        k(   16) = (   0.3333333  -0.1924501   0.8437131), wk =   0.0266667
        k(   17) = (   0.3333333  -0.1924501  -1.1158786), wk =   0.0266667
        k(   18) = (   0.3333333  -0.1924501  -0.6259807), wk =   0.0266667
        k(   19) = (   0.3333333   0.2694301  -0.2993820), wk =   0.0266667
        k(   20) = (   0.3333333   0.2694301   0.1905159), wk =   0.0266667
        k(   21) = (   0.3333333   0.2694301   0.6804138), wk =   0.0266667
        k(   22) = (   0.3333333   0.2694301  -1.2791779), wk =   0.0266667
        k(   23) = (   0.3333333   0.2694301  -0.7892800), wk =   0.0266667
        k(   24) = (   0.3333333   0.7313103  -0.4626813), wk =   0.0266667
        k(   25) = (   0.3333333   0.7313103   0.0272166), wk =   0.0266667
        k(   26) = (   0.3333333   0.7313103   0.5171145), wk =   0.0266667
        k(   27) = (   0.3333333   0.7313103  -1.4424772), wk =   0.0266667
        k(   28) = (   0.3333333   0.7313103  -0.9525793), wk =   0.0266667
        k(   29) = (   0.3333333  -1.1162105   0.1905158), wk =   0.0266667
        k(   30) = (   0.3333333  -1.1162105   0.6804138), wk =   0.0266667
        k(   31) = (   0.3333333  -1.1162105   1.1703117), wk =   0.0266667
        k(   32) = (   0.3333333  -1.1162105  -0.7892800), wk =   0.0266667
        k(   33) = (   0.3333333  -1.1162105  -0.2993821), wk =   0.0266667
        k(   34) = (   0.3333333  -0.6543303   0.0272165), wk =   0.0266667
        k(   35) = (   0.3333333  -0.6543303   0.5171145), wk =   0.0266667
        k(   36) = (   0.3333333  -0.6543303   1.0070124), wk =   0.0266667
        k(   37) = (   0.3333333  -0.6543303  -0.9525793), wk =   0.0266667
        k(   38) = (   0.3333333  -0.6543303  -0.4626814), wk =   0.0266667

                       cryst. coord.
        k(    1) = (   0.0000000   0.0000000   0.0000000), wk =   0.0133333
        k(    2) = (   0.0000000   0.0000000   0.2000000), wk =   0.0266667
        k(    3) = (   0.0000000   0.0000000   0.4000000), wk =   0.0266667
        k(    4) = (   0.0000000   0.2000000   0.0000000), wk =   0.0266667
        k(    5) = (   0.0000000   0.2000000   0.2000000), wk =   0.0266667
        k(    6) = (   0.0000000   0.2000000   0.4000000), wk =   0.0266667
        k(    7) = (   0.0000000   0.2000000  -0.4000000), wk =   0.0266667
        k(    8) = (   0.0000000   0.2000000  -0.2000000), wk =   0.0266667
        k(    9) = (   0.0000000   0.4000000   0.0000000), wk =   0.0266667
        k(   10) = (   0.0000000   0.4000000   0.2000000), wk =   0.0266667
        k(   11) = (   0.0000000   0.4000000   0.4000000), wk =   0.0266667
        k(   12) = (   0.0000000   0.4000000  -0.4000000), wk =   0.0266667
        k(   13) = (   0.0000000   0.4000000  -0.2000000), wk =   0.0266667
        k(   14) = (   0.3333333  -0.0000000  -0.0000000), wk =   0.0266667
        k(   15) = (   0.3333333  -0.0000000   0.2000000), wk =   0.0266667
        k(   16) = (   0.3333333  -0.0000000   0.4000000), wk =   0.0266667
        k(   17) = (   0.3333333  -0.0000000  -0.4000000), wk =   0.0266667
        k(   18) = (   0.3333333  -0.0000000  -0.2000000), wk =   0.0266667
        k(   19) = (   0.3333333   0.2000000  -0.0000000), wk =   0.0266667
        k(   20) = (   0.3333333   0.2000000   0.2000000), wk =   0.0266667
        k(   21) = (   0.3333333   0.2000000   0.4000000), wk =   0.0266667
        k(   22) = (   0.3333333   0.2000000  -0.4000000), wk =   0.0266667
        k(   23) = (   0.3333333   0.2000000  -0.2000000), wk =   0.0266667
        k(   24) = (   0.3333333   0.4000000   0.0000000), wk =   0.0266667
        k(   25) = (   0.3333333   0.4000000   0.2000000), wk =   0.0266667
        k(   26) = (   0.3333333   0.4000000   0.4000000), wk =   0.0266667
        k(   27) = (   0.3333333   0.4000000  -0.4000000), wk =   0.0266667
        k(   28) = (   0.3333333   0.4000000  -0.2000000), wk =   0.0266667
        k(   29) = (   0.3333333  -0.4000000   0.0000000), wk =   0.0266667
        k(   30) = (   0.3333333  -0.4000000   0.2000000), wk =   0.0266667
        k(   31) = (   0.3333333  -0.4000000   0.4000000), wk =   0.0266667
        k(   32) = (   0.3333333  -0.4000000  -0.4000000), wk =   0.0266667
        k(   33) = (   0.3333333  -0.4000000  -0.2000000), wk =   0.0266667
        k(   34) = (   0.3333333  -0.2000000  -0.0000000), wk =   0.0266667
        k(   35) = (   0.3333333  -0.2000000   0.2000000), wk =   0.0266667
        k(   36) = (   0.3333333  -0.2000000   0.4000000), wk =   0.0266667
        k(   37) = (   0.3333333  -0.2000000  -0.4000000), wk =   0.0266667
        k(   38) = (   0.3333333  -0.2000000  -0.2000000), wk =   0.0266667

     Dense  grid:    17651 G-vectors     FFT dimensions: (  60,  30,  30)

     Smooth grid:    12697 G-vectors     FFT dimensions: (  54,  25,  25)

     Dynamical RAM for                 wfc:       0.10 MB

     Dynamical RAM for     wfc (w. buffer):       7.75 MB

     Dynamical RAM for           str. fact:       0.13 MB

     Dynamical RAM for           local pot:       0.00 MB

     Dynamical RAM for          nlocal pot:       0.29 MB

     Dynamical RAM for                qrad:       2.95 MB

     Dynamical RAM for          rho,v,vnew:       0.68 MB

     Dynamical RAM for               rhoin:       0.23 MB

     Dynamical RAM for            rho*nmix:       1.44 MB

     Dynamical RAM for           G-vectors:       0.18 MB

     Dynamical RAM for          h,s,v(r/c):       0.11 MB

     Dynamical RAM for          <psi|beta>:       0.03 MB

     Dynamical RAM for                 psi:       0.20 MB

     Dynamical RAM for                hpsi:       0.20 MB

     Dynamical RAM for                spsi:       0.20 MB

     Dynamical RAM for      wfcinit/wfcrot:       0.24 MB

     Dynamical RAM for           addusdens:       8.48 MB

     Dynamical RAM for          addusforce:       8.59 MB

     Estimated static dynamical RAM per process >      12.81 MB

     Estimated max dynamical RAM per process >      22.84 MB

     Estimated total dynamical RAM >     137.05 MB

     Check: negative core charge=   -0.000237
     Generating pointlists ...
     new r_m :   0.1263 (alat units)  1.8676 (a.u.) for type    1
     new r_m :   0.1263 (alat units)  1.8676 (a.u.) for type    2
     new r_m :   0.1263 (alat units)  1.8676 (a.u.) for type    3

     Initial potential from superposition of free atoms

     starting charge      41.9989, renormalised to      42.0000
     Starting wfcs are   28 randomized atomic wfcs
     Checking if some PAW data can be deallocated... 
       PAW data deallocated on    4 nodes for type:  1
       PAW data deallocated on    4 nodes for type:  2
       PAW data deallocated on    4 nodes for type:  3

     total cpu time spent up to now is        1.9 secs

     Self-consistent Calculation

     iteration #  1     ecut=    30.00 Ry     beta= 0.70
     Davidson diagonalization with overlap

---- Real-time Memory Report at c_bands before calling an iterative solver
            57 MiB given to the printing process from OS
             0 MiB allocation reported by mallinfo(arena+hblkhd)
          1948 MiB available memory on the node where the printing process lives
------------------
     ethr =  1.00E-02,  avg # of iterations =  2.0

     Threshold (ethr) on eigenvalues was too large:
     Diagonalizing with lowered threshold

     Davidson diagonalization with overlap

---- Real-time Memory Report at c_bands before calling an iterative solver
            57 MiB given to the printing process from OS
             0 MiB allocation reported by mallinfo(arena+hblkhd)
          1917 MiB available memory on the node where the printing process lives
------------------
     ethr =  3.66E-04,  avg # of iterations =  4.0

     total cpu time spent up to now is        6.4 secs

     total energy              =    -705.51013564 Ry
     estimated scf accuracy    <       0.13340133 Ry

     total magnetization       =     0.00 Bohr mag/cell
     absolute magnetization    =     8.16 Bohr mag/cell

     iteration #  2     ecut=    30.00 Ry     beta= 0.70
     Davidson diagonalization with overlap

---- Real-time Memory Report at c_bands before calling an iterative solver
            66 MiB given to the printing process from OS
             0 MiB allocation reported by mallinfo(arena+hblkhd)
          1914 MiB available memory on the node where the printing process lives
------------------
     ethr =  3.18E-04,  avg # of iterations =  2.1

     total cpu time spent up to now is        8.7 secs

     total energy              =    -705.54658607 Ry
     estimated scf accuracy    <       0.01488527 Ry

     total magnetization       =    -0.00 Bohr mag/cell
     absolute magnetization    =     8.63 Bohr mag/cell

     iteration #  3     ecut=    30.00 Ry     beta= 0.70
     Davidson diagonalization with overlap

---- Real-time Memory Report at c_bands before calling an iterative solver
            67 MiB given to the printing process from OS
             0 MiB allocation reported by mallinfo(arena+hblkhd)
          1915 MiB available memory on the node where the printing process lives
------------------
     ethr =  3.54E-05,  avg # of iterations =  3.9

     total cpu time spent up to now is       11.5 secs

     total energy              =    -705.54851008 Ry
     estimated scf accuracy    <       0.01491112 Ry

     total magnetization       =     0.00 Bohr mag/cell
     absolute magnetization    =     8.86 Bohr mag/cell

     iteration #  4     ecut=    30.00 Ry     beta= 0.70
     Davidson diagonalization with overlap

---- Real-time Memory Report at c_bands before calling an iterative solver
            67 MiB given to the printing process from OS
             0 MiB allocation reported by mallinfo(arena+hblkhd)
          1915 MiB available memory on the node where the printing process lives
------------------
     ethr =  3.54E-05,  avg # of iterations =  5.0

     total cpu time spent up to now is       14.2 secs

     total energy              =    -705.54870500 Ry
     estimated scf accuracy    <       0.06299791 Ry

     total magnetization       =    -0.00 Bohr mag/cell
     absolute magnetization    =     8.87 Bohr mag/cell

     iteration #  5     ecut=    30.00 Ry     beta= 0.70
     Davidson diagonalization with overlap

---- Real-time Memory Report at c_bands before calling an iterative solver
            67 MiB given to the printing process from OS
             0 MiB allocation reported by mallinfo(arena+hblkhd)
          1914 MiB available memory on the node where the printing process lives
------------------
     ethr =  3.54E-05,  avg # of iterations =  3.1

     total cpu time spent up to now is       16.5 secs

     total energy              =    -705.55549653 Ry
     estimated scf accuracy    <       0.00141420 Ry

     total magnetization       =     0.00 Bohr mag/cell
     absolute magnetization    =     9.01 Bohr mag/cell

     iteration #  6     ecut=    30.00 Ry     beta= 0.70
     Davidson diagonalization with overlap

---- Real-time Memory Report at c_bands before calling an iterative solver
            67 MiB given to the printing process from OS
             0 MiB allocation reported by mallinfo(arena+hblkhd)
          1913 MiB available memory on the node where the printing process lives
------------------
     ethr =  3.37E-06,  avg # of iterations =  5.2

     total cpu time spent up to now is       19.9 secs

     total energy              =    -705.55603821 Ry
     estimated scf accuracy    <       0.00074657 Ry

     total magnetization       =     0.00 Bohr mag/cell
     absolute magnetization    =     9.01 Bohr mag/cell

     iteration #  7     ecut=    30.00 Ry     beta= 0.70
     Davidson diagonalization with overlap

---- Real-time Memory Report at c_bands before calling an iterative solver
            67 MiB given to the printing process from OS
             0 MiB allocation reported by mallinfo(arena+hblkhd)
          1876 MiB available memory on the node where the printing process lives
------------------
     ethr =  1.78E-06,  avg # of iterations =  2.7

     total cpu time spent up to now is       22.3 secs

     total energy              =    -705.55612661 Ry
     estimated scf accuracy    <       0.00010710 Ry

     total magnetization       =     0.00 Bohr mag/cell
     absolute magnetization    =     9.03 Bohr mag/cell

     iteration #  8     ecut=    30.00 Ry     beta= 0.70
     Davidson diagonalization with overlap

---- Real-time Memory Report at c_bands before calling an iterative solver
            68 MiB given to the printing process from OS
             0 MiB allocation reported by mallinfo(arena+hblkhd)
          1891 MiB available memory on the node where the printing process lives
------------------
     ethr =  2.55E-07,  avg # of iterations =  3.7

     total cpu time spent up to now is       24.7 secs

     total energy              =    -705.55613909 Ry
     estimated scf accuracy    <       0.00002730 Ry

     total magnetization       =     0.00 Bohr mag/cell
     absolute magnetization    =     9.04 Bohr mag/cell

     iteration #  9     ecut=    30.00 Ry     beta= 0.70
     Davidson diagonalization with overlap

---- Real-time Memory Report at c_bands before calling an iterative solver
            68 MiB given to the printing process from OS
             0 MiB allocation reported by mallinfo(arena+hblkhd)
          1890 MiB available memory on the node where the printing process lives
------------------
     ethr =  6.50E-08,  avg # of iterations =  2.8

     total cpu time spent up to now is       27.1 secs

     total energy              =    -705.55614304 Ry
     estimated scf accuracy    <       0.00000315 Ry

     total magnetization       =    -0.00 Bohr mag/cell
     absolute magnetization    =     9.04 Bohr mag/cell

     iteration # 10     ecut=    30.00 Ry     beta= 0.70
     Davidson diagonalization with overlap

---- Real-time Memory Report at c_bands before calling an iterative solver
            68 MiB given to the printing process from OS
             0 MiB allocation reported by mallinfo(arena+hblkhd)
          1890 MiB available memory on the node where the printing process lives
------------------
     ethr =  7.51E-09,  avg # of iterations =  4.3

     total cpu time spent up to now is       29.8 secs

     total energy              =    -705.55614393 Ry
     estimated scf accuracy    <       0.00000055 Ry

     total magnetization       =    -0.00 Bohr mag/cell
     absolute magnetization    =     9.04 Bohr mag/cell

     iteration # 11     ecut=    30.00 Ry     beta= 0.70
     Davidson diagonalization with overlap

---- Real-time Memory Report at c_bands before calling an iterative solver
            68 MiB given to the printing process from OS
             0 MiB allocation reported by mallinfo(arena+hblkhd)
          1890 MiB available memory on the node where the printing process lives
------------------
     ethr =  1.30E-09,  avg # of iterations =  3.5

     total cpu time spent up to now is       32.3 secs

     total energy              =    -705.55614402 Ry
     estimated scf accuracy    <       0.00000006 Ry

     total magnetization       =    -0.00 Bohr mag/cell
     absolute magnetization    =     9.04 Bohr mag/cell

     iteration # 12     ecut=    30.00 Ry     beta= 0.70
     Davidson diagonalization with overlap

---- Real-time Memory Report at c_bands before calling an iterative solver
            68 MiB given to the printing process from OS
             0 MiB allocation reported by mallinfo(arena+hblkhd)
          1896 MiB available memory on the node where the printing process lives
------------------
     ethr =  1.34E-10,  avg # of iterations =  4.4

     total cpu time spent up to now is       35.0 secs

     total energy              =    -705.55614404 Ry
     estimated scf accuracy    <          2.9E-09 Ry

     total magnetization       =     0.00 Bohr mag/cell
     absolute magnetization    =     9.04 Bohr mag/cell

     iteration # 13     ecut=    30.00 Ry     beta= 0.70
     Davidson diagonalization with overlap

---- Real-time Memory Report at c_bands before calling an iterative solver
            68 MiB given to the printing process from OS
             0 MiB allocation reported by mallinfo(arena+hblkhd)
          1899 MiB available memory on the node where the printing process lives
------------------
     ethr =  6.92E-12,  avg # of iterations =  4.3

     total cpu time spent up to now is       37.8 secs

     total energy              =    -705.55614404 Ry
     estimated scf accuracy    <          9.1E-10 Ry

     total magnetization       =     0.00 Bohr mag/cell
     absolute magnetization    =     9.04 Bohr mag/cell

     iteration # 14     ecut=    30.00 Ry     beta= 0.70
     Davidson diagonalization with overlap

---- Real-time Memory Report at c_bands before calling an iterative solver
            68 MiB given to the printing process from OS
             0 MiB allocation reported by mallinfo(arena+hblkhd)
          1898 MiB available memory on the node where the printing process lives
------------------
     ethr =  2.16E-12,  avg # of iterations =  2.2

     Magnetic moment per site  (integrated on atomic sphere of radius R)
     atom   1 (R=0.126)  charge= 12.9060  magn=  3.9271
     atom   2 (R=0.126)  charge= 12.9060  magn= -3.9271
     atom   3 (R=0.126)  charge=  4.1391  magn= -0.0613
     atom   4 (R=0.126)  charge=  4.1391  magn=  0.0613

     total cpu time spent up to now is       40.2 secs

     End of self-consistent calculation

 ------ SPIN UP ------------


          k = 0.0000 0.0000 0.0000 (  1617 PWs)   bands (ev):

   -74.4249 -70.0016 -43.1638 -43.1637 -43.1145 -38.8016 -38.7795 -38.7794
    -6.1217  -5.4083   2.2431   3.0487   3.0487   3.4174   4.1367   4.1367
     5.0845   5.0845   6.5490   7.5046   7.5047   8.7757   8.7757   9.4372
    10.1418

     occupation numbers 
     1.0000   1.0000   1.0000   1.0000   1.0000   1.0000   1.0000   1.0000
     1.0000   1.0000   1.0000   1.0000   1.0000   1.0000   1.0000   1.0000
     1.0000   1.0000   1.0000   0.9999   0.9999   0.0000   0.0000   0.0000
     0.0000

          k = 0.0000 0.0000 0.4899 (  1600 PWs)   bands (ev):

   -74.4247 -70.0014 -43.1646 -43.1639 -43.1142 -38.8012 -38.7808 -38.7797
    -5.9009  -5.3353   2.4501   2.8287   3.1688   3.4378   3.7786   4.1491
     4.9881   5.0785   6.2137   6.7022   7.1353   8.6287   8.7474   9.5047
    10.0479

     occupation numbers 
     1.0000   1.0000   1.0000   1.0000   1.0000   1.0000   1.0000   1.0000
     1.0000   1.0000   1.0000   1.0000   1.0000   1.0000   1.0000   1.0000
     1.0000   1.0000   1.0000   1.0000   1.0000   0.0000   0.0000   0.0000
     0.0000

          k = 0.0000 0.0000 0.9798 (  1578 PWs)   bands (ev):

   -74.4244 -70.0012 -43.1658 -43.1641 -43.1140 -38.8010 -38.7827 -38.7801
    -5.5072  -5.2008   2.1212   2.4779   3.3582   3.5417   3.9226   4.2045
     4.9650   5.0895   5.5501   6.2437   6.6017   8.3581   8.8843   8.9925
     9.3953

     occupation numbers 
     1.0000   1.0000   1.0000   1.0000   1.0000   1.0000   1.0000   1.0000
     1.0000   1.0000   1.0000   1.0000   1.0000   1.0000   1.0000   1.0000
     1.0000   1.0000   1.0000   1.0000   1.0000   0.0000   0.0000   0.0000
     0.0000

          k = 0.0000 0.4619-0.1633 (  1600 PWs)   bands (ev):

   -74.4247 -70.0014 -43.1646 -43.1639 -43.1142 -38.8012 -38.7807 -38.7797
    -5.9009  -5.3353   2.4501   2.8287   3.1687   3.4378   3.7786   4.1491
     4.9882   5.0785   6.2137   6.7022   7.1353   8.6286   8.7474   9.5047
    10.0478

     occupation numbers 
     1.0000   1.0000   1.0000   1.0000   1.0000   1.0000   1.0000   1.0000
     1.0000   1.0000   1.0000   1.0000   1.0000   1.0000   1.0000   1.0000
     1.0000   1.0000   1.0000   1.0000   1.0000   0.0000   0.0000   0.0000
     0.0000

          k = 0.0000 0.4619 0.3266 (  1598 PWs)   bands (ev):

   -74.4247 -70.0014 -43.1645 -43.1639 -43.1142 -38.8013 -38.7806 -38.7797
    -5.8323  -5.4167   2.6036   2.7294   3.1704   3.3868   3.8075   4.1672
     4.9720   5.0403   6.2983   6.6906   7.1064   8.5560   8.8524   9.5499
     9.9180

     occupation numbers 
     1.0000   1.0000   1.0000   1.0000   1.0000   1.0000   1.0000   1.0000
     1.0000   1.0000   1.0000   1.0000   1.0000   1.0000   1.0000   1.0000
     1.0000   1.0000   1.0000   1.0000   1.0000   0.0000   0.0000   0.0000
     0.0000

          k = 0.0000 0.4619 0.8165 (  1588 PWs)   bands (ev):

   -74.4245 -70.0012 -43.1654 -43.1643 -43.1141 -38.8011 -38.7820 -38.7804
    -5.5053  -5.3199   2.3565   2.6401   3.2220   3.4976   3.8087   4.0796
     4.8831   5.1380   5.7934   6.2586   6.5484   8.3836   8.7396   9.0905
     9.4097

     occupation numbers 
     1.0000   1.0000   1.0000   1.0000   1.0000   1.0000   1.0000   1.0000
     1.0000   1.0000   1.0000   1.0000   1.0000   1.0000   1.0000   1.0000
     1.0000   1.0000   1.0000   1.0000   1.0000   0.0000   0.0000   0.0000
     0.0000

          k = 0.0000 0.4619-1.1431 (  1573 PWs)   bands (ev):

   -74.4244 -70.0011 -43.1658 -43.1646 -43.1139 -38.8009 -38.7828 -38.7809
    -5.3573  -5.1844   2.3615   2.6608   3.1394   3.5511   3.6830   4.0246
     4.8120   5.2050   5.5619   5.8254   6.2292   8.2861   8.7038   9.0663
     9.2067

     occupation numbers 
     1.0000   1.0000   1.0000   1.0000   1.0000   1.0000   1.0000   1.0000
     1.0000   1.0000   1.0000   1.0000   1.0000   1.0000   1.0000   1.0000
     1.0000   1.0000   1.0000   1.0000   1.0000   0.0000   0.0000   0.0000
     0.0000

          k = 0.0000 0.4619-0.6532 (  1585 PWs)   bands (ev):

   -74.4245 -70.0012 -43.1654 -43.1643 -43.1141 -38.8011 -38.7821 -38.7803
    -5.6170  -5.2001   2.5497   2.8238   3.1858   3.3518   3.5524   4.1005
     4.9820   5.1079   5.5848   6.0395   6.6081   8.5044   8.8492   9.1516
     9.2551

     occupation numbers 
     1.0000   1.0000   1.0000   1.0000   1.0000   1.0000   1.0000   1.0000
     1.0000   1.0000   1.0000   1.0000   1.0000   1.0000   1.0000   1.0000
     1.0000   1.0000   1.0000   1.0000   1.0000   0.0000   0.0000   0.0000
     0.0000

          k = 0.0000 0.9238-0.3266 (  1578 PWs)   bands (ev):

   -74.4244 -70.0012 -43.1658 -43.1642 -43.1140 -38.8010 -38.7827 -38.7802
    -5.5072  -5.2008   2.1212   2.4779   3.3581   3.5417   3.9226   4.2045
     4.9650   5.0895   5.5502   6.2437   6.6017   8.3580   8.8844   8.9925
     9.3953

     occupation numbers 
     1.0000   1.0000   1.0000   1.0000   1.0000   1.0000   1.0000   1.0000
     1.0000   1.0000   1.0000   1.0000   1.0000   1.0000   1.0000   1.0000
     1.0000   1.0000   1.0000   1.0000   1.0000   0.0000   0.0000   0.0000
     0.0000

          k = 0.0000 0.9238 0.1633 (  1588 PWs)   bands (ev):

   -74.4245 -70.0012 -43.1653 -43.1644 -43.1141 -38.8011 -38.7820 -38.7804
    -5.5053  -5.3199   2.3565   2.6400   3.2219   3.4976   3.8087   4.0796
     4.8831   5.1380   5.7934   6.2586   6.5484   8.3835   8.7396   9.0905
     9.4097

     occupation numbers 
     1.0000   1.0000   1.0000   1.0000   1.0000   1.0000   1.0000   1.0000
     1.0000   1.0000   1.0000   1.0000   1.0000   1.0000   1.0000   1.0000
     1.0000   1.0000   1.0000   1.0000   1.0000   0.0000   0.0000   0.0000
     0.0000

          k = 0.0000 0.9238 0.6532 (  1582 PWs)   bands (ev):

   -74.4244 -70.0012 -43.1658 -43.1642 -43.1141 -38.8010 -38.7827 -38.7802
    -5.4510  -5.2617   2.1262   2.4741   3.3613   3.4939   3.9418   4.2079
     4.9962   5.0644   5.5960   6.2369   6.6023   8.4113   8.8640   8.9072
     9.3175

     occupation numbers 
     1.0000   1.0000   1.0000   1.0000   1.0000   1.0000   1.0000   1.0000
     1.0000   1.0000   1.0000   1.0000   1.0000   1.0000   1.0000   1.0000
     1.0000   1.0000   1.0000   1.0000   1.0000   0.0000   0.0000   0.0000
     0.0000

          k = 0.0000 0.9238-1.3064 (  1588 PWs)   bands (ev):

   -74.4245 -70.0012 -43.1659 -43.1648 -43.1141 -38.8010 -38.7828 -38.7810
    -5.3660  -5.1738   2.2951   2.5700   3.1899   3.6272   3.7266   3.9797
     4.7878   5.1709   5.5865   5.8588   6.2761   8.2515   8.6014   9.0488
     9.2815

     occupation numbers 
     1.0000   1.0000   1.0000   1.0000   1.0000   1.0000   1.0000   1.0000
     1.0000   1.0000   1.0000   1.0000   1.0000   1.0000   1.0000   1.0000
     1.0000   1.0000   1.0000   1.0000   1.0000   0.0000   0.0000   0.0000
     0.0000

          k = 0.0000 0.9238-0.8165 (  1573 PWs)   bands (ev):

   -74.4244 -70.0011 -43.1658 -43.1647 -43.1139 -38.8009 -38.7827 -38.7810
    -5.3573  -5.1844   2.3615   2.6608   3.1393   3.5511   3.6830   4.0246
     4.8120   5.2050   5.5619   5.8254   6.2292   8.2861   8.7038   9.0663
     9.2067

     occupation numbers 
     1.0000   1.0000   1.0000   1.0000   1.0000   1.0000   1.0000   1.0000
     1.0000   1.0000   1.0000   1.0000   1.0000   1.0000   1.0000   1.0000
     1.0000   1.0000   1.0000   1.0000   1.0000   0.0000   0.0000   0.0000
     0.0000

          k = 0.3333-0.1925-0.1361 (  1605 PWs)   bands (ev):

   -74.4248 -70.0015 -43.1637 -43.1636 -43.1144 -38.8015 -38.7794 -38.7793
    -5.9719  -5.5897   2.4986   3.0601   3.0601   3.2000   4.1818   4.1819
     5.0209   5.0209   6.5173   7.4698   7.4699   8.8741   8.8741   9.5024
    10.4906

     occupation numbers 
     1.0000   1.0000   1.0000   1.0000   1.0000   1.0000   1.0000   1.0000
     1.0000   1.0000   1.0000   1.0000   1.0000   1.0000   1.0000   1.0000
     1.0000   1.0000   1.0000   1.0000   1.0000   0.0000   0.0000   0.0000
     0.0000

          k = 0.3333-0.1925 0.3538 (  1594 PWs)   bands (ev):

   -74.4246 -70.0014 -43.1645 -43.1639 -43.1142 -38.8012 -38.7807 -38.7796
    -5.8692  -5.3738   2.5889   2.7475   3.1730   3.4166   3.7462   4.1608
     4.9988   5.0647   6.2468   6.7104   7.1111   8.5723   8.8576   9.5828
     9.9384

     occupation numbers 
     1.0000   1.0000   1.0000   1.0000   1.0000   1.0000   1.0000   1.0000
     1.0000   1.0000   1.0000   1.0000   1.0000   1.0000   1.0000   1.0000
     1.0000   1.0000   1.0000   1.0000   1.0000   0.0000   0.0000   0.0000
     0.0000

          k = 0.3333-0.1925 0.8437 (  1583 PWs)   bands (ev):

   -74.4245 -70.0012 -43.1658 -43.1642 -43.1141 -38.8010 -38.7828 -38.7801
    -5.5079  -5.2063   2.3225   2.8046   3.2963   3.3395   3.5599   4.2053
     5.0153   5.1049   5.4403   6.0214   6.5463   8.5114   8.9547   9.0381
     9.3067

     occupation numbers 
     1.0000   1.0000   1.0000   1.0000   1.0000   1.0000   1.0000   1.0000
     1.0000   1.0000   1.0000   1.0000   1.0000   1.0000   1.0000   1.0000
     1.0000   1.0000   1.0000   1.0000   1.0000   0.0000   0.0000   0.0000
     0.0000

          k = 0.3333-0.1925-1.1159 (  1581 PWs)   bands (ev):

   -74.4244 -70.0012 -43.1658 -43.1642 -43.1141 -38.8010 -38.7827 -38.7801
    -5.4263  -5.2904   2.2065   2.5819   3.3542   3.3858   3.8258   4.2118
     5.0412   5.0896   5.5783   6.0861   6.5798   8.5273   8.9099   8.9383
     9.2218

     occupation numbers 
     1.0000   1.0000   1.0000   1.0000   1.0000   1.0000   1.0000   1.0000
     1.0000   1.0000   1.0000   1.0000   1.0000   1.0000   1.0000   1.0000
     1.0000   1.0000   1.0000   1.0000   1.0000   0.0000   0.0000   0.0000
     0.0000

          k = 0.3333-0.1925-0.6260 (  1602 PWs)   bands (ev):

   -74.4247 -70.0014 -43.1646 -43.1638 -43.1142 -38.8013 -38.7808 -38.7796
    -5.7161  -5.5441   2.5300   2.7327   3.1700   3.3701   3.9746   4.1845
     4.9017   5.0177   6.4482   6.6312   7.1375   8.5508   8.7725   9.3441
     9.8283

     occupation numbers 
     1.0000   1.0000   1.0000   1.0000   1.0000   1.0000   1.0000   1.0000
     1.0000   1.0000   1.0000   1.0000   1.0000   1.0000   1.0000   1.0000
     1.0000   1.0000   1.0000   1.0000   1.0000   0.0000   0.0000   0.0000
     0.0000

          k = 0.3333 0.2694-0.2994 (  1594 PWs)   bands (ev):

   -74.4246 -70.0014 -43.1645 -43.1639 -43.1142 -38.8012 -38.7806 -38.7797
    -5.8692  -5.3738   2.5889   2.7475   3.1730   3.4166   3.7462   4.1608
     4.9988   5.0647   6.2468   6.7104   7.1110   8.5722   8.8577   9.5828
     9.9384

     occupation numbers 
     1.0000   1.0000   1.0000   1.0000   1.0000   1.0000   1.0000   1.0000
     1.0000   1.0000   1.0000   1.0000   1.0000   1.0000   1.0000   1.0000
     1.0000   1.0000   1.0000   1.0000   1.0000   0.0000   0.0000   0.0000
     0.0000

          k = 0.3333 0.2694 0.1905 (  1598 PWs)   bands (ev):

   -74.4247 -70.0014 -43.1645 -43.1638 -43.1143 -38.8013 -38.7807 -38.7796
    -5.9168  -5.3161   2.4701   2.8280   3.1733   3.4557   3.7182   4.1479
     5.0023   5.0929   6.1757   6.7124   7.1390   8.6194   8.7764   9.5132
    10.0948

     occupation numbers 
     1.0000   1.0000   1.0000   1.0000   1.0000   1.0000   1.0000   1.0000
     1.0000   1.0000   1.0000   1.0000   1.0000   1.0000   1.0000   1.0000
     1.0000   1.0000   1.0000   1.0000   1.0000   0.0000   0.0000   0.0000
     0.0000

          k = 0.3333 0.2694 0.6804 (  1583 PWs)   bands (ev):

   -74.4245 -70.0012 -43.1654 -43.1643 -43.1140 -38.8011 -38.7821 -38.7804
    -5.6134  -5.2042   2.5373   2.8163   3.1820   3.3724   3.5601   4.1020
     4.9798   5.1067   5.6012   6.0510   6.6122   8.4986   8.8405   9.1574
     9.2691

     occupation numbers 
     1.0000   1.0000   1.0000   1.0000   1.0000   1.0000   1.0000   1.0000
     1.0000   1.0000   1.0000   1.0000   1.0000   1.0000   1.0000   1.0000
     1.0000   1.0000   1.0000   1.0000   1.0000   0.0000   0.0000   0.0000
     0.0000

          k = 0.3333 0.2694-1.2792 (  1576 PWs)   bands (ev):

   -74.4244 -70.0011 -43.1658 -43.1647 -43.1140 -38.8009 -38.7828 -38.7809
    -5.3620  -5.1786   2.3273   2.6122   3.1692   3.6011   3.6976   4.0034
     4.8031   5.1943   5.5788   5.8517   6.2561   8.2787   8.6485   9.0751
     9.2345

     occupation numbers 
     1.0000   1.0000   1.0000   1.0000   1.0000   1.0000   1.0000   1.0000
     1.0000   1.0000   1.0000   1.0000   1.0000   1.0000   1.0000   1.0000
     1.0000   1.0000   1.0000   1.0000   1.0000   0.0000   0.0000   0.0000
     0.0000

          k = 0.3333 0.2694-0.7893 (  1589 PWs)   bands (ev):

   -74.4245 -70.0012 -43.1654 -43.1643 -43.1141 -38.8011 -38.7820 -38.7804
    -5.5327  -5.2912   2.3830   2.6678   3.2109   3.4894   3.7502   4.0953
     4.8991   5.1287   5.7589   6.2009   6.5730   8.3917   8.7594   9.1084
     9.3970

     occupation numbers 
     1.0000   1.0000   1.0000   1.0000   1.0000   1.0000   1.0000   1.0000
     1.0000   1.0000   1.0000   1.0000   1.0000   1.0000   1.0000   1.0000
     1.0000   1.0000   1.0000   1.0000   1.0000   0.0000   0.0000   0.0000
     0.0000

          k = 0.3333 0.7313-0.4627 (  1583 PWs)   bands (ev):

   -74.4245 -70.0012 -43.1658 -43.1642 -43.1141 -38.8010 -38.7827 -38.7802
    -5.5079  -5.2063   2.3225   2.8046   3.2963   3.3394   3.5599   4.2053
     5.0153   5.1049   5.4404   6.0214   6.5462   8.5113   8.9548   9.0381
     9.3067

     occupation numbers 
     1.0000   1.0000   1.0000   1.0000   1.0000   1.0000   1.0000   1.0000
     1.0000   1.0000   1.0000   1.0000   1.0000   1.0000   1.0000   1.0000
     1.0000   1.0000   1.0000   1.0000   1.0000   0.0000   0.0000   0.0000
     0.0000

          k = 0.3333 0.7313 0.0272 (  1583 PWs)   bands (ev):

   -74.4245 -70.0012 -43.1654 -43.1643 -43.1140 -38.8011 -38.7820 -38.7804
    -5.6134  -5.2042   2.5373   2.8163   3.1820   3.3724   3.5601   4.1020
     4.9798   5.1067   5.6013   6.0510   6.6122   8.4986   8.8405   9.1573
     9.2692

     occupation numbers 
     1.0000   1.0000   1.0000   1.0000   1.0000   1.0000   1.0000   1.0000
     1.0000   1.0000   1.0000   1.0000   1.0000   1.0000   1.0000   1.0000
     1.0000   1.0000   1.0000   1.0000   1.0000   0.0000   0.0000   0.0000
     0.0000

          k = 0.3333 0.7313 0.5171 (  1587 PWs)   bands (ev):

   -74.4245 -70.0012 -43.1658 -43.1642 -43.1142 -38.8011 -38.7827 -38.7802
    -5.4717  -5.2460   2.3290   2.8337   3.1829   3.3417   3.6237   4.2083
     5.0406   5.0973   5.4658   5.9835   6.5482   8.5433   8.9484   9.0264
     9.2264

     occupation numbers 
     1.0000   1.0000   1.0000   1.0000   1.0000   1.0000   1.0000   1.0000
     1.0000   1.0000   1.0000   1.0000   1.0000   1.0000   1.0000   1.0000
     1.0000   1.0000   1.0000   1.0000   1.0000   0.0000   0.0000   0.0000
     0.0000

          k = 0.3333 0.7313-1.4425 (  1573 PWs)   bands (ev):

   -74.4244 -70.0011 -43.1658 -43.1646 -43.1140 -38.8010 -38.7827 -38.7809
    -5.3458  -5.1984   2.4509   2.7988   3.0646   3.3848   3.6615   4.0647
     4.8202   5.2231   5.4987   5.7846   6.1836   8.2715   8.8368   9.0036
     9.1523

     occupation numbers 
     1.0000   1.0000   1.0000   1.0000   1.0000   1.0000   1.0000   1.0000
     1.0000   1.0000   1.0000   1.0000   1.0000   1.0000   1.0000   1.0000
     1.0000   1.0000   1.0000   1.0000   1.0000   0.0000   0.0000   0.0000
     0.0000

          k = 0.3333 0.7313-0.9526 (  1579 PWs)   bands (ev):

   -74.4244 -70.0011 -43.1658 -43.1647 -43.1140 -38.8010 -38.7827 -38.7810
    -5.3379  -5.2080   2.5156   2.9246   3.0213   3.2229   3.6534   4.0810
     4.8123   5.2293   5.4457   5.7732   6.1540   8.2490   8.8763   9.0051
     9.1103

     occupation numbers 
     1.0000   1.0000   1.0000   1.0000   1.0000   1.0000   1.0000   1.0000
     1.0000   1.0000   1.0000   1.0000   1.0000   1.0000   1.0000   1.0000
     1.0000   1.0000   1.0000   1.0000   1.0000   0.0000   0.0000   0.0000
     0.0000

          k = 0.3333-1.1162 0.1905 (  1581 PWs)   bands (ev):

   -74.4244 -70.0012 -43.1658 -43.1642 -43.1141 -38.8010 -38.7827 -38.7802
    -5.4263  -5.2904   2.2065   2.5819   3.3541   3.3858   3.8259   4.2118
     5.0413   5.0896   5.5784   6.0861   6.5798   8.5273   8.9100   8.9383
     9.2218

     occupation numbers 
     1.0000   1.0000   1.0000   1.0000   1.0000   1.0000   1.0000   1.0000
     1.0000   1.0000   1.0000   1.0000   1.0000   1.0000   1.0000   1.0000
     1.0000   1.0000   1.0000   1.0000   1.0000   0.0000   0.0000   0.0000
     0.0000

          k = 0.3333-1.1162 0.6804 (  1576 PWs)   bands (ev):

   -74.4244 -70.0011 -43.1658 -43.1647 -43.1140 -38.8009 -38.7827 -38.7810
    -5.3620  -5.1786   2.3273   2.6122   3.1691   3.6011   3.6976   4.0034
     4.8031   5.1943   5.5789   5.8517   6.2561   8.2787   8.6485   9.0751
     9.2345

     occupation numbers 
     1.0000   1.0000   1.0000   1.0000   1.0000   1.0000   1.0000   1.0000
     1.0000   1.0000   1.0000   1.0000   1.0000   1.0000   1.0000   1.0000
     1.0000   1.0000   1.0000   1.0000   1.0000   0.0000   0.0000   0.0000
     0.0000

          k = 0.3333-1.1162 1.1703 (  1573 PWs)   bands (ev):

   -74.4244 -70.0011 -43.1658 -43.1646 -43.1140 -38.8010 -38.7827 -38.7809
    -5.3458  -5.1984   2.4509   2.7988   3.0646   3.3848   3.6615   4.0647
     4.8202   5.2231   5.4987   5.7846   6.1836   8.2715   8.8368   9.0036
     9.1523

     occupation numbers 
     1.0000   1.0000   1.0000   1.0000   1.0000   1.0000   1.0000   1.0000
     1.0000   1.0000   1.0000   1.0000   1.0000   1.0000   1.0000   1.0000
     1.0000   1.0000   1.0000   1.0000   1.0000   0.0000   0.0000   0.0000
     0.0000

          k = 0.3333-1.1162-0.7893 (  1577 PWs)   bands (ev):

   -74.4244 -70.0012 -43.1658 -43.1641 -43.1140 -38.8010 -38.7827 -38.7801
    -5.5245  -5.1838   2.1916   2.5776   3.3552   3.5263   3.7451   4.2030
     4.9721   5.0961   5.4931   6.1470   6.5814   8.4301   8.9063   9.0464
     9.3798

     occupation numbers 
     1.0000   1.0000   1.0000   1.0000   1.0000   1.0000   1.0000   1.0000
     1.0000   1.0000   1.0000   1.0000   1.0000   1.0000   1.0000   1.0000
     1.0000   1.0000   1.0000   1.0000   1.0000   0.0000   0.0000   0.0000
     0.0000

          k = 0.3333-1.1162-0.2994 (  1580 PWs)   bands (ev):

   -74.4245 -70.0012 -43.1653 -43.1643 -43.1140 -38.8010 -38.7820 -38.7804
    -5.5597  -5.2620   2.4217   2.7086   3.1996   3.4807   3.6906   4.1057
     4.9320   5.1259   5.7196   6.1589   6.5949   8.4189   8.7901   9.1376
     9.3881

     occupation numbers 
     1.0000   1.0000   1.0000   1.0000   1.0000   1.0000   1.0000   1.0000
     1.0000   1.0000   1.0000   1.0000   1.0000   1.0000   1.0000   1.0000
     1.0000   1.0000   1.0000   1.0000   1.0000   0.0000   0.0000   0.0000
     0.0000

          k = 0.3333-0.6543 0.0272 (  1602 PWs)   bands (ev):

   -74.4247 -70.0014 -43.1646 -43.1639 -43.1142 -38.8013 -38.7807 -38.7797
    -5.7161  -5.5441   2.5301   2.7327   3.1700   3.3701   3.9746   4.1845
     4.9017   5.0177   6.4482   6.6313   7.1375   8.5508   8.7725   9.3441
     9.8283

     occupation numbers 
     1.0000   1.0000   1.0000   1.0000   1.0000   1.0000   1.0000   1.0000
     1.0000   1.0000   1.0000   1.0000   1.0000   1.0000   1.0000   1.0000
     1.0000   1.0000   1.0000   1.0000   1.0000   0.0000   0.0000   0.0000
     0.0000

          k = 0.3333-0.6543 0.5171 (  1589 PWs)   bands (ev):

   -74.4245 -70.0012 -43.1654 -43.1643 -43.1141 -38.8011 -38.7820 -38.7804
    -5.5327  -5.2912   2.3830   2.6678   3.2109   3.4894   3.7502   4.0953
     4.8991   5.1287   5.7589   6.2009   6.5730   8.3917   8.7594   9.1083
     9.3970

     occupation numbers 
     1.0000   1.0000   1.0000   1.0000   1.0000   1.0000   1.0000   1.0000
     1.0000   1.0000   1.0000   1.0000   1.0000   1.0000   1.0000   1.0000
     1.0000   1.0000   1.0000   1.0000   1.0000   0.0000   0.0000   0.0000
     0.0000

          k = 0.3333-0.6543 1.0070 (  1579 PWs)   bands (ev):

   -74.4244 -70.0011 -43.1659 -43.1647 -43.1140 -38.8010 -38.7828 -38.7809
    -5.3379  -5.2080   2.5156   2.9246   3.0214   3.2229   3.6534   4.0810
     4.8123   5.2293   5.4457   5.7732   6.1541   8.2490   8.8762   9.0051
     9.1103

     occupation numbers 
     1.0000   1.0000   1.0000   1.0000   1.0000   1.0000   1.0000   1.0000
     1.0000   1.0000   1.0000   1.0000   1.0000   1.0000   1.0000   1.0000
     1.0000   1.0000   1.0000   1.0000   1.0000   0.0000   0.0000   0.0000
     0.0000

          k = 0.3333-0.6543-0.9526 (  1580 PWs)   bands (ev):

   -74.4245 -70.0012 -43.1653 -43.1643 -43.1140 -38.8010 -38.7820 -38.7804
    -5.5597  -5.2620   2.4217   2.7086   3.1996   3.4807   3.6906   4.1056
     4.9320   5.1259   5.7195   6.1590   6.5950   8.4190   8.7901   9.1376
     9.3881

     occupation numbers 
     1.0000   1.0000   1.0000   1.0000   1.0000   1.0000   1.0000   1.0000
     1.0000   1.0000   1.0000   1.0000   1.0000   1.0000   1.0000   1.0000
     1.0000   1.0000   1.0000   1.0000   1.0000   0.0000   0.0000   0.0000
     0.0000

          k = 0.3333-0.6543-0.4627 (  1599 PWs)   bands (ev):

   -74.4247 -70.0014 -43.1646 -43.1639 -43.1142 -38.8013 -38.7807 -38.7797
    -5.7527  -5.5047   2.4963   2.7548   3.1717   3.3770   3.9687   4.1828
     4.9157   5.0340   6.4143   6.6529   7.1468   8.5796   8.7595   9.3640
     9.8052

     occupation numbers 
     1.0000   1.0000   1.0000   1.0000   1.0000   1.0000   1.0000   1.0000
     1.0000   1.0000   1.0000   1.0000   1.0000   1.0000   1.0000   1.0000
     1.0000   1.0000   1.0000   1.0000   1.0000   0.0000   0.0000   0.0000
     0.0000

 ------ SPIN DOWN ----------


          k = 0.0000 0.0000 0.0000 (  1617 PWs)   bands (ev):

   -74.4249 -70.0015 -43.1638 -43.1638 -43.1145 -38.8016 -38.7795 -38.7794
    -6.1217  -5.4082   2.2431   3.0487   3.0487   3.4174   4.1367   4.1367
     5.0844   5.0845   6.5489   7.5046   7.5047   8.7757   8.7757   9.4372
    10.1418

     occupation numbers 
     1.0000   1.0000   1.0000   1.0000   1.0000   1.0000   1.0000   1.0000
     1.0000   1.0000   1.0000   1.0000   1.0000   1.0000   1.0000   1.0000
     1.0000   1.0000   1.0000   0.9999   0.9999   0.0000   0.0000   0.0000
     0.0000

          k = 0.0000 0.0000 0.4899 (  1600 PWs)   bands (ev):

   -74.4247 -70.0014 -43.1646 -43.1639 -43.1142 -38.8012 -38.7808 -38.7796
    -5.9009  -5.3353   2.4501   2.8287   3.1688   3.4378   3.7786   4.1491
     4.9881   5.0785   6.2137   6.7022   7.1353   8.6287   8.7474   9.5047
    10.0479

     occupation numbers 
     1.0000   1.0000   1.0000   1.0000   1.0000   1.0000   1.0000   1.0000
     1.0000   1.0000   1.0000   1.0000   1.0000   1.0000   1.0000   1.0000
     1.0000   1.0000   1.0000   1.0000   1.0000   0.0000   0.0000   0.0000
     0.0000

          k = 0.0000 0.0000 0.9798 (  1578 PWs)   bands (ev):

   -74.4244 -70.0011 -43.1658 -43.1642 -43.1140 -38.8010 -38.7827 -38.7801
    -5.5072  -5.2008   2.1212   2.4779   3.3582   3.5417   3.9226   4.2045
     4.9650   5.0894   5.5501   6.2437   6.6017   8.3581   8.8843   8.9925
     9.3953

     occupation numbers 
     1.0000   1.0000   1.0000   1.0000   1.0000   1.0000   1.0000   1.0000
     1.0000   1.0000   1.0000   1.0000   1.0000   1.0000   1.0000   1.0000
     1.0000   1.0000   1.0000   1.0000   1.0000   0.0000   0.0000   0.0000
     0.0000

          k = 0.0000 0.4619-0.1633 (  1600 PWs)   bands (ev):

   -74.4247 -70.0014 -43.1646 -43.1639 -43.1142 -38.8012 -38.7807 -38.7797
    -5.9009  -5.3353   2.4501   2.8287   3.1687   3.4378   3.7786   4.1491
     4.9881   5.0785   6.2137   6.7022   7.1353   8.6286   8.7474   9.5047
    10.0479

     occupation numbers 
     1.0000   1.0000   1.0000   1.0000   1.0000   1.0000   1.0000   1.0000
     1.0000   1.0000   1.0000   1.0000   1.0000   1.0000   1.0000   1.0000
     1.0000   1.0000   1.0000   1.0000   1.0000   0.0000   0.0000   0.0000
     0.0000

          k = 0.0000 0.4619 0.3266 (  1598 PWs)   bands (ev):

   -74.4247 -70.0014 -43.1645 -43.1639 -43.1143 -38.8013 -38.7806 -38.7797
    -5.8323  -5.4167   2.6036   2.7294   3.1704   3.3868   3.8075   4.1672
     4.9720   5.0403   6.2983   6.6906   7.1064   8.5560   8.8524   9.5499
     9.9180

     occupation numbers 
     1.0000   1.0000   1.0000   1.0000   1.0000   1.0000   1.0000   1.0000
     1.0000   1.0000   1.0000   1.0000   1.0000   1.0000   1.0000   1.0000
     1.0000   1.0000   1.0000   1.0000   1.0000   0.0000   0.0000   0.0000
     0.0000

          k = 0.0000 0.4619 0.8165 (  1588 PWs)   bands (ev):

   -74.4245 -70.0012 -43.1654 -43.1644 -43.1141 -38.8011 -38.7820 -38.7804
    -5.5053  -5.3198   2.3565   2.6401   3.2220   3.4976   3.8087   4.0796
     4.8831   5.1380   5.7934   6.2586   6.5484   8.3836   8.7396   9.0905
     9.4097

     occupation numbers 
     1.0000   1.0000   1.0000   1.0000   1.0000   1.0000   1.0000   1.0000
     1.0000   1.0000   1.0000   1.0000   1.0000   1.0000   1.0000   1.0000
     1.0000   1.0000   1.0000   1.0000   1.0000   0.0000   0.0000   0.0000
     0.0000

          k = 0.0000 0.4619-1.1431 (  1573 PWs)   bands (ev):

   -74.4244 -70.0011 -43.1658 -43.1647 -43.1140 -38.8009 -38.7827 -38.7809
    -5.3573  -5.1844   2.3615   2.6608   3.1394   3.5511   3.6830   4.0246
     4.8120   5.2049   5.5619   5.8254   6.2292   8.2861   8.7038   9.0663
     9.2067

     occupation numbers 
     1.0000   1.0000   1.0000   1.0000   1.0000   1.0000   1.0000   1.0000
     1.0000   1.0000   1.0000   1.0000   1.0000   1.0000   1.0000   1.0000
     1.0000   1.0000   1.0000   1.0000   1.0000   0.0000   0.0000   0.0000
     0.0000

          k = 0.0000 0.4619-0.6532 (  1585 PWs)   bands (ev):

   -74.4245 -70.0012 -43.1654 -43.1643 -43.1141 -38.8011 -38.7821 -38.7803
    -5.6170  -5.2000   2.5497   2.8238   3.1858   3.3518   3.5524   4.1005
     4.9820   5.1079   5.5848   6.0394   6.6081   8.5045   8.8492   9.1516
     9.2551

     occupation numbers 
     1.0000   1.0000   1.0000   1.0000   1.0000   1.0000   1.0000   1.0000
     1.0000   1.0000   1.0000   1.0000   1.0000   1.0000   1.0000   1.0000
     1.0000   1.0000   1.0000   1.0000   1.0000   0.0000   0.0000   0.0000
     0.0000

          k = 0.0000 0.9238-0.3266 (  1578 PWs)   bands (ev):

   -74.4244 -70.0011 -43.1658 -43.1642 -43.1140 -38.8010 -38.7827 -38.7801
    -5.5072  -5.2008   2.1212   2.4779   3.3581   3.5417   3.9226   4.2045
     4.9650   5.0894   5.5502   6.2437   6.6017   8.3580   8.8844   8.9925
     9.3953

     occupation numbers 
     1.0000   1.0000   1.0000   1.0000   1.0000   1.0000   1.0000   1.0000
     1.0000   1.0000   1.0000   1.0000   1.0000   1.0000   1.0000   1.0000
     1.0000   1.0000   1.0000   1.0000   1.0000   0.0000   0.0000   0.0000
     0.0000

          k = 0.0000 0.9238 0.1633 (  1588 PWs)   bands (ev):

   -74.4245 -70.0012 -43.1654 -43.1644 -43.1141 -38.8011 -38.7820 -38.7804
    -5.5053  -5.3198   2.3565   2.6401   3.2219   3.4976   3.8087   4.0796
     4.8831   5.1380   5.7934   6.2586   6.5484   8.3836   8.7396   9.0905
     9.4097

     occupation numbers 
     1.0000   1.0000   1.0000   1.0000   1.0000   1.0000   1.0000   1.0000
     1.0000   1.0000   1.0000   1.0000   1.0000   1.0000   1.0000   1.0000
     1.0000   1.0000   1.0000   1.0000   1.0000   0.0000   0.0000   0.0000
     0.0000

          k = 0.0000 0.9238 0.6532 (  1582 PWs)   bands (ev):

   -74.4245 -70.0012 -43.1658 -43.1642 -43.1141 -38.8010 -38.7827 -38.7801
    -5.4510  -5.2617   2.1262   2.4741   3.3613   3.4939   3.9418   4.2079
     4.9962   5.0644   5.5960   6.2369   6.6023   8.4113   8.8640   8.9072
     9.3175

     occupation numbers 
     1.0000   1.0000   1.0000   1.0000   1.0000   1.0000   1.0000   1.0000
     1.0000   1.0000   1.0000   1.0000   1.0000   1.0000   1.0000   1.0000
     1.0000   1.0000   1.0000   1.0000   1.0000   0.0000   0.0000   0.0000
     0.0000

          k = 0.0000 0.9238-1.3064 (  1588 PWs)   bands (ev):

   -74.4245 -70.0012 -43.1659 -43.1648 -43.1141 -38.8010 -38.7828 -38.7810
    -5.3660  -5.1738   2.2951   2.5700   3.1899   3.6272   3.7266   3.9797
     4.7878   5.1709   5.5865   5.8588   6.2761   8.2515   8.6014   9.0488
     9.2815

     occupation numbers 
     1.0000   1.0000   1.0000   1.0000   1.0000   1.0000   1.0000   1.0000
     1.0000   1.0000   1.0000   1.0000   1.0000   1.0000   1.0000   1.0000
     1.0000   1.0000   1.0000   1.0000   1.0000   0.0000   0.0000   0.0000
     0.0000

          k = 0.0000 0.9238-0.8165 (  1573 PWs)   bands (ev):

   -74.4244 -70.0011 -43.1658 -43.1647 -43.1140 -38.8009 -38.7827 -38.7809
    -5.3573  -5.1844   2.3615   2.6608   3.1393   3.5511   3.6830   4.0246
     4.8120   5.2050   5.5619   5.8254   6.2292   8.2861   8.7038   9.0663
     9.2067

     occupation numbers 
     1.0000   1.0000   1.0000   1.0000   1.0000   1.0000   1.0000   1.0000
     1.0000   1.0000   1.0000   1.0000   1.0000   1.0000   1.0000   1.0000
     1.0000   1.0000   1.0000   1.0000   1.0000   0.0000   0.0000   0.0000
     0.0000

          k = 0.3333-0.1925-0.1361 (  1605 PWs)   bands (ev):

   -74.4248 -70.0015 -43.1637 -43.1636 -43.1144 -38.8015 -38.7794 -38.7793
    -5.9719  -5.5897   2.4986   3.0600   3.0601   3.2000   4.1818   4.1819
     5.0209   5.0209   6.5173   7.4698   7.4699   8.8741   8.8741   9.5024
    10.4199

     occupation numbers 
     1.0000   1.0000   1.0000   1.0000   1.0000   1.0000   1.0000   1.0000
     1.0000   1.0000   1.0000   1.0000   1.0000   1.0000   1.0000   1.0000
     1.0000   1.0000   1.0000   1.0000   1.0000   0.0000   0.0000   0.0000
     0.0000

          k = 0.3333-0.1925 0.3538 (  1594 PWs)   bands (ev):

   -74.4247 -70.0013 -43.1645 -43.1639 -43.1142 -38.8012 -38.7807 -38.7796
    -5.8692  -5.3738   2.5889   2.7475   3.1730   3.4165   3.7462   4.1608
     4.9988   5.0647   6.2468   6.7104   7.1111   8.5723   8.8576   9.5828
     9.9384

     occupation numbers 
     1.0000   1.0000   1.0000   1.0000   1.0000   1.0000   1.0000   1.0000
     1.0000   1.0000   1.0000   1.0000   1.0000   1.0000   1.0000   1.0000
     1.0000   1.0000   1.0000   1.0000   1.0000   0.0000   0.0000   0.0000
     0.0000

          k = 0.3333-0.1925 0.8437 (  1583 PWs)   bands (ev):

   -74.4245 -70.0012 -43.1658 -43.1642 -43.1141 -38.8010 -38.7827 -38.7801
    -5.5079  -5.2063   2.3225   2.8046   3.2963   3.3395   3.5599   4.2053
     5.0152   5.1049   5.4403   6.0214   6.5463   8.5114   8.9547   9.0381
     9.3067

     occupation numbers 
     1.0000   1.0000   1.0000   1.0000   1.0000   1.0000   1.0000   1.0000
     1.0000   1.0000   1.0000   1.0000   1.0000   1.0000   1.0000   1.0000
     1.0000   1.0000   1.0000   1.0000   1.0000   0.0000   0.0000   0.0000
     0.0000

          k = 0.3333-0.1925-1.1159 (  1581 PWs)   bands (ev):

   -74.4245 -70.0012 -43.1658 -43.1642 -43.1141 -38.8010 -38.7827 -38.7801
    -5.4263  -5.2904   2.2065   2.5819   3.3542   3.3858   3.8258   4.2118
     5.0412   5.0896   5.5783   6.0861   6.5798   8.5273   8.9099   8.9383
     9.2218

     occupation numbers 
     1.0000   1.0000   1.0000   1.0000   1.0000   1.0000   1.0000   1.0000
     1.0000   1.0000   1.0000   1.0000   1.0000   1.0000   1.0000   1.0000
     1.0000   1.0000   1.0000   1.0000   1.0000   0.0000   0.0000   0.0000
     0.0000

          k = 0.3333-0.1925-0.6260 (  1602 PWs)   bands (ev):

   -74.4247 -70.0014 -43.1646 -43.1638 -43.1143 -38.8013 -38.7808 -38.7796
    -5.7161  -5.5441   2.5300   2.7327   3.1700   3.3701   3.9746   4.1845
     4.9017   5.0177   6.4482   6.6312   7.1375   8.5508   8.7725   9.3441
     9.8283

     occupation numbers 
     1.0000   1.0000   1.0000   1.0000   1.0000   1.0000   1.0000   1.0000
     1.0000   1.0000   1.0000   1.0000   1.0000   1.0000   1.0000   1.0000
     1.0000   1.0000   1.0000   1.0000   1.0000   0.0000   0.0000   0.0000
     0.0000

          k = 0.3333 0.2694-0.2994 (  1594 PWs)   bands (ev):

   -74.4247 -70.0013 -43.1645 -43.1639 -43.1142 -38.8012 -38.7806 -38.7797
    -5.8692  -5.3738   2.5889   2.7475   3.1729   3.4166   3.7462   4.1608
     4.9988   5.0647   6.2468   6.7104   7.1110   8.5723   8.8577   9.5828
     9.9384

     occupation numbers 
     1.0000   1.0000   1.0000   1.0000   1.0000   1.0000   1.0000   1.0000
     1.0000   1.0000   1.0000   1.0000   1.0000   1.0000   1.0000   1.0000
     1.0000   1.0000   1.0000   1.0000   1.0000   0.0000   0.0000   0.0000
     0.0000

          k = 0.3333 0.2694 0.1905 (  1598 PWs)   bands (ev):

   -74.4247 -70.0014 -43.1646 -43.1638 -43.1143 -38.8013 -38.7807 -38.7796
    -5.9168  -5.3161   2.4701   2.8279   3.1733   3.4557   3.7182   4.1479
     5.0023   5.0929   6.1756   6.7124   7.1390   8.6194   8.7764   9.5132
    10.0948

     occupation numbers 
     1.0000   1.0000   1.0000   1.0000   1.0000   1.0000   1.0000   1.0000
     1.0000   1.0000   1.0000   1.0000   1.0000   1.0000   1.0000   1.0000
     1.0000   1.0000   1.0000   1.0000   1.0000   0.0000   0.0000   0.0000
     0.0000

          k = 0.3333 0.2694 0.6804 (  1583 PWs)   bands (ev):

   -74.4245 -70.0012 -43.1654 -43.1643 -43.1141 -38.8010 -38.7820 -38.7803
    -5.6134  -5.2041   2.5373   2.8163   3.1820   3.3724   3.5601   4.1020
     4.9798   5.1067   5.6012   6.0510   6.6122   8.4987   8.8405   9.1574
     9.2691

     occupation numbers 
     1.0000   1.0000   1.0000   1.0000   1.0000   1.0000   1.0000   1.0000
     1.0000   1.0000   1.0000   1.0000   1.0000   1.0000   1.0000   1.0000
     1.0000   1.0000   1.0000   1.0000   1.0000   0.0000   0.0000   0.0000
     0.0000

          k = 0.3333 0.2694-1.2792 (  1576 PWs)   bands (ev):

   -74.4244 -70.0011 -43.1659 -43.1647 -43.1140 -38.8009 -38.7828 -38.7809
    -5.3620  -5.1786   2.3273   2.6122   3.1692   3.6011   3.6976   4.0034
     4.8031   5.1943   5.5788   5.8517   6.2561   8.2787   8.6485   9.0751
     9.2345

     occupation numbers 
     1.0000   1.0000   1.0000   1.0000   1.0000   1.0000   1.0000   1.0000
     1.0000   1.0000   1.0000   1.0000   1.0000   1.0000   1.0000   1.0000
     1.0000   1.0000   1.0000   1.0000   1.0000   0.0000   0.0000   0.0000
     0.0000

          k = 0.3333 0.2694-0.7893 (  1589 PWs)   bands (ev):

   -74.4245 -70.0012 -43.1654 -43.1643 -43.1142 -38.8011 -38.7820 -38.7804
    -5.5327  -5.2912   2.3830   2.6678   3.2109   3.4894   3.7502   4.0953
     4.8990   5.1287   5.7588   6.2009   6.5730   8.3917   8.7594   9.1084
     9.3970

     occupation numbers 
     1.0000   1.0000   1.0000   1.0000   1.0000   1.0000   1.0000   1.0000
     1.0000   1.0000   1.0000   1.0000   1.0000   1.0000   1.0000   1.0000
     1.0000   1.0000   1.0000   1.0000   1.0000   0.0000   0.0000   0.0000
     0.0000

          k = 0.3333 0.7313-0.4627 (  1583 PWs)   bands (ev):

   -74.4245 -70.0012 -43.1658 -43.1642 -43.1141 -38.8010 -38.7827 -38.7802
    -5.5079  -5.2063   2.3225   2.8046   3.2963   3.3394   3.5599   4.2053
     5.0153   5.1049   5.4404   6.0214   6.5462   8.5113   8.9548   9.0381
     9.3067

     occupation numbers 
     1.0000   1.0000   1.0000   1.0000   1.0000   1.0000   1.0000   1.0000
     1.0000   1.0000   1.0000   1.0000   1.0000   1.0000   1.0000   1.0000
     1.0000   1.0000   1.0000   1.0000   1.0000   0.0000   0.0000   0.0000
     0.0000

          k = 0.3333 0.7313 0.0272 (  1583 PWs)   bands (ev):

   -74.4245 -70.0012 -43.1654 -43.1643 -43.1141 -38.8010 -38.7820 -38.7804
    -5.6134  -5.2041   2.5373   2.8163   3.1820   3.3724   3.5601   4.1021
     4.9798   5.1067   5.6013   6.0510   6.6122   8.4986   8.8405   9.1574
     9.2692

     occupation numbers 
     1.0000   1.0000   1.0000   1.0000   1.0000   1.0000   1.0000   1.0000
     1.0000   1.0000   1.0000   1.0000   1.0000   1.0000   1.0000   1.0000
     1.0000   1.0000   1.0000   1.0000   1.0000   0.0000   0.0000   0.0000
     0.0000

          k = 0.3333 0.7313 0.5171 (  1587 PWs)   bands (ev):

   -74.4245 -70.0012 -43.1658 -43.1642 -43.1142 -38.8011 -38.7827 -38.7802
    -5.4717  -5.2459   2.3290   2.8337   3.1829   3.3417   3.6237   4.2083
     5.0406   5.0973   5.4658   5.9834   6.5482   8.5433   8.9484   9.0264
     9.2264

     occupation numbers 
     1.0000   1.0000   1.0000   1.0000   1.0000   1.0000   1.0000   1.0000
     1.0000   1.0000   1.0000   1.0000   1.0000   1.0000   1.0000   1.0000
     1.0000   1.0000   1.0000   1.0000   1.0000   0.0000   0.0000   0.0000
     0.0000

          k = 0.3333 0.7313-1.4425 (  1573 PWs)   bands (ev):

   -74.4244 -70.0011 -43.1658 -43.1647 -43.1140 -38.8009 -38.7827 -38.7809
    -5.3458  -5.1984   2.4509   2.7988   3.0646   3.3848   3.6615   4.0647
     4.8202   5.2231   5.4987   5.7846   6.1836   8.2715   8.8368   9.0036
     9.1523

     occupation numbers 
     1.0000   1.0000   1.0000   1.0000   1.0000   1.0000   1.0000   1.0000
     1.0000   1.0000   1.0000   1.0000   1.0000   1.0000   1.0000   1.0000
     1.0000   1.0000   1.0000   1.0000   1.0000   0.0000   0.0000   0.0000
     0.0000

          k = 0.3333 0.7313-0.9526 (  1579 PWs)   bands (ev):

   -74.4244 -70.0011 -43.1659 -43.1647 -43.1140 -38.8010 -38.7827 -38.7810
    -5.3379  -5.2079   2.5156   2.9246   3.0213   3.2229   3.6534   4.0810
     4.8123   5.2292   5.4457   5.7732   6.1540   8.2490   8.8763   9.0051
     9.1103

     occupation numbers 
     1.0000   1.0000   1.0000   1.0000   1.0000   1.0000   1.0000   1.0000
     1.0000   1.0000   1.0000   1.0000   1.0000   1.0000   1.0000   1.0000
     1.0000   1.0000   1.0000   1.0000   1.0000   0.0000   0.0000   0.0000
     0.0000

          k = 0.3333-1.1162 0.1905 (  1581 PWs)   bands (ev):

   -74.4245 -70.0012 -43.1658 -43.1642 -43.1141 -38.8010 -38.7827 -38.7802
    -5.4263  -5.2904   2.2065   2.5819   3.3541   3.3858   3.8259   4.2118
     5.0412   5.0896   5.5784   6.0861   6.5798   8.5273   8.9100   8.9383
     9.2218

     occupation numbers 
     1.0000   1.0000   1.0000   1.0000   1.0000   1.0000   1.0000   1.0000
     1.0000   1.0000   1.0000   1.0000   1.0000   1.0000   1.0000   1.0000
     1.0000   1.0000   1.0000   1.0000   1.0000   0.0000   0.0000   0.0000
     0.0000

          k = 0.3333-1.1162 0.6804 (  1576 PWs)   bands (ev):

   -74.4244 -70.0011 -43.1658 -43.1647 -43.1140 -38.8009 -38.7827 -38.7810
    -5.3620  -5.1786   2.3273   2.6122   3.1691   3.6011   3.6976   4.0034
     4.8031   5.1943   5.5789   5.8517   6.2561   8.2787   8.6485   9.0751
     9.2345

     occupation numbers 
     1.0000   1.0000   1.0000   1.0000   1.0000   1.0000   1.0000   1.0000
     1.0000   1.0000   1.0000   1.0000   1.0000   1.0000   1.0000   1.0000
     1.0000   1.0000   1.0000   1.0000   1.0000   0.0000   0.0000   0.0000
     0.0000

          k = 0.3333-1.1162 1.1703 (  1573 PWs)   bands (ev):

   -74.4244 -70.0011 -43.1658 -43.1647 -43.1140 -38.8009 -38.7827 -38.7809
    -5.3458  -5.1984   2.4509   2.7988   3.0646   3.3848   3.6615   4.0647
     4.8202   5.2231   5.4987   5.7846   6.1836   8.2715   8.8368   9.0036
     9.1523

     occupation numbers 
     1.0000   1.0000   1.0000   1.0000   1.0000   1.0000   1.0000   1.0000
     1.0000   1.0000   1.0000   1.0000   1.0000   1.0000   1.0000   1.0000
     1.0000   1.0000   1.0000   1.0000   1.0000   0.0000   0.0000   0.0000
     0.0000

          k = 0.3333-1.1162-0.7893 (  1577 PWs)   bands (ev):

   -74.4244 -70.0011 -43.1658 -43.1641 -43.1140 -38.8010 -38.7827 -38.7801
    -5.5245  -5.1838   2.1916   2.5776   3.3552   3.5263   3.7451   4.2030
     4.9721   5.0961   5.4931   6.1470   6.5814   8.4301   8.9063   9.0464
     9.3798

     occupation numbers 
     1.0000   1.0000   1.0000   1.0000   1.0000   1.0000   1.0000   1.0000
     1.0000   1.0000   1.0000   1.0000   1.0000   1.0000   1.0000   1.0000
     1.0000   1.0000   1.0000   1.0000   1.0000   0.0000   0.0000   0.0000
     0.0000

          k = 0.3333-1.1162-0.2994 (  1580 PWs)   bands (ev):

   -74.4245 -70.0012 -43.1653 -43.1643 -43.1140 -38.8010 -38.7820 -38.7804
    -5.5597  -5.2619   2.4217   2.7086   3.1996   3.4807   3.6906   4.1057
     4.9320   5.1259   5.7196   6.1589   6.5949   8.4189   8.7901   9.1376
     9.3881

     occupation numbers 
     1.0000   1.0000   1.0000   1.0000   1.0000   1.0000   1.0000   1.0000
     1.0000   1.0000   1.0000   1.0000   1.0000   1.0000   1.0000   1.0000
     1.0000   1.0000   1.0000   1.0000   1.0000   0.0000   0.0000   0.0000
     0.0000

          k = 0.3333-0.6543 0.0272 (  1602 PWs)   bands (ev):

   -74.4247 -70.0014 -43.1646 -43.1639 -43.1143 -38.8013 -38.7807 -38.7797
    -5.7161  -5.5441   2.5301   2.7327   3.1700   3.3701   3.9746   4.1846
     4.9017   5.0177   6.4482   6.6312   7.1375   8.5508   8.7725   9.3441
     9.8283

     occupation numbers 
     1.0000   1.0000   1.0000   1.0000   1.0000   1.0000   1.0000   1.0000
     1.0000   1.0000   1.0000   1.0000   1.0000   1.0000   1.0000   1.0000
     1.0000   1.0000   1.0000   1.0000   1.0000   0.0000   0.0000   0.0000
     0.0000

          k = 0.3333-0.6543 0.5171 (  1589 PWs)   bands (ev):

   -74.4245 -70.0012 -43.1654 -43.1643 -43.1142 -38.8011 -38.7820 -38.7804
    -5.5327  -5.2912   2.3830   2.6678   3.2109   3.4894   3.7502   4.0953
     4.8990   5.1287   5.7588   6.2009   6.5730   8.3917   8.7594   9.1083
     9.3970

     occupation numbers 
     1.0000   1.0000   1.0000   1.0000   1.0000   1.0000   1.0000   1.0000
     1.0000   1.0000   1.0000   1.0000   1.0000   1.0000   1.0000   1.0000
     1.0000   1.0000   1.0000   1.0000   1.0000   0.0000   0.0000   0.0000
     0.0000

          k = 0.3333-0.6543 1.0070 (  1579 PWs)   bands (ev):

   -74.4244 -70.0011 -43.1659 -43.1647 -43.1140 -38.8010 -38.7828 -38.7809
    -5.3379  -5.2079   2.5156   2.9246   3.0213   3.2229   3.6534   4.0810
     4.8123   5.2292   5.4457   5.7732   6.1541   8.2490   8.8762   9.0051
     9.1103

     occupation numbers 
     1.0000   1.0000   1.0000   1.0000   1.0000   1.0000   1.0000   1.0000
     1.0000   1.0000   1.0000   1.0000   1.0000   1.0000   1.0000   1.0000
     1.0000   1.0000   1.0000   1.0000   1.0000   0.0000   0.0000   0.0000
     0.0000

          k = 0.3333-0.6543-0.9526 (  1580 PWs)   bands (ev):

   -74.4245 -70.0012 -43.1654 -43.1643 -43.1140 -38.8010 -38.7820 -38.7803
    -5.5597  -5.2619   2.4217   2.7086   3.1996   3.4807   3.6906   4.1056
     4.9320   5.1259   5.7195   6.1589   6.5949   8.4190   8.7901   9.1376
     9.3881

     occupation numbers 
     1.0000   1.0000   1.0000   1.0000   1.0000   1.0000   1.0000   1.0000
     1.0000   1.0000   1.0000   1.0000   1.0000   1.0000   1.0000   1.0000
     1.0000   1.0000   1.0000   1.0000   1.0000   0.0000   0.0000   0.0000
     0.0000

          k = 0.3333-0.6543-0.4627 (  1599 PWs)   bands (ev):

   -74.4247 -70.0014 -43.1646 -43.1639 -43.1142 -38.8012 -38.7807 -38.7797
    -5.7527  -5.5047   2.4963   2.7547   3.1717   3.3770   3.9687   4.1828
     4.9157   5.0340   6.4143   6.6529   7.1468   8.5797   8.7595   9.3640
     9.8052

     occupation numbers 
     1.0000   1.0000   1.0000   1.0000   1.0000   1.0000   1.0000   1.0000
     1.0000   1.0000   1.0000   1.0000   1.0000   1.0000   1.0000   1.0000
     1.0000   1.0000   1.0000   1.0000   1.0000   0.0000   0.0000   0.0000
     0.0000

     the Fermi energy is     7.8635 ev

!    total energy              =    -705.55614404 Ry
     total all-electron energy =     -6231.272951 Ry
     estimated scf accuracy    <          3.6E-11 Ry
     smearing contrib. (-TS)   =      -0.00000044 Ry
     internal energy E=F+TS    =    -705.55614360 Ry

     The total energy is F=E-TS. E is the sum of the following terms:
     one-electron contribution =    -304.55211576 Ry
     hartree contribution      =     169.20662798 Ry
     xc contribution           =     -66.18456472 Ry
     ewald contribution        =    -256.51068425 Ry
     one-center paw contrib.   =    -247.51540685 Ry
      -> PAW hartree energy AE =     175.16884654 Ry
      -> PAW hartree energy PS =    -176.13174103 Ry
      -> PAW xc energy AE      =    -104.51010758 Ry
      -> PAW xc energy PS      =      27.85083079 Ry
      -> total E_H with PAW    =     168.24373349 Ry
      -> total E_XC with PAW   =    -142.84384150 Ry

     total magnetization       =     0.00 Bohr mag/cell
     absolute magnetization    =     9.04 Bohr mag/cell

     convergence has been achieved in  14 iterations

     Forces acting on atoms (cartesian axes, Ry/au):

     atom    1 type  1   force =    -0.01256468    0.00725422    0.00514902
     atom    2 type  2   force =    -0.01257083    0.00725777    0.00515142
     atom    3 type  3   force =     0.01256688   -0.00725549   -0.00514984
     atom    4 type  3   force =     0.01256863   -0.00725650   -0.00515060
     The non-local contrib.  to forces
     atom    1 type  1   force =    -0.01153526    0.00665988    0.00475743
     atom    2 type  2   force =    -0.01153572    0.00666015    0.00475763
     atom    3 type  3   force =     0.00915601   -0.00528622   -0.00373924
     atom    4 type  3   force =     0.00915658   -0.00528655   -0.00373945
     The ionic contribution  to forces
     atom    1 type  1   force =    -0.00000135   -0.00000078   -0.00000055
     atom    2 type  2   force =    -0.00000135   -0.00000078   -0.00000055
     atom    3 type  3   force =     0.00000135    0.00000078    0.00000055
     atom    4 type  3   force =     0.00000135    0.00000078    0.00000055
     The local contribution  to forces
     atom    1 type  1   force =    -0.00429064    0.00247824    0.00172448
     atom    2 type  2   force =    -0.00428721    0.00247626    0.00172304
     atom    3 type  3   force =     0.00362873   -0.00209630   -0.00150048
     atom    4 type  3   force =     0.00363263   -0.00209855   -0.00150208
     The core correction contribution to forces
     atom    1 type  1   force =     0.00323415   -0.00186723   -0.00132086
     atom    2 type  2   force =     0.00323415   -0.00186723   -0.00132086
     atom    3 type  3   force =    -0.00024256    0.00014004    0.00009868
     atom    4 type  3   force =    -0.00024257    0.00014004    0.00009868
     The Hubbard contrib.    to forces
     atom    1 type  1   force =     0.00000000    0.00000000    0.00000000
     atom    2 type  2   force =     0.00000000    0.00000000    0.00000000
     atom    3 type  3   force =     0.00000000    0.00000000    0.00000000
     atom    4 type  3   force =     0.00000000    0.00000000    0.00000000
     The SCF correction term to forces
     atom    1 type  1   force =     0.00000641   -0.00000370   -0.00000275
     atom    2 type  2   force =    -0.00000271    0.00000156    0.00000089
     atom    3 type  3   force =     0.00000169   -0.00000098   -0.00000062
     atom    4 type  3   force =    -0.00000101    0.00000058    0.00000044

     Total force =     0.030798     Total SCF correction =     0.000009

     BFGS Geometry Optimization
     Energy error            =      0.0E+00 Ry
     Gradient error          =      1.3E-02 Ry/Bohr

     number of scf cycles    =   1
     number of bfgs steps    =   0

     energy             new  =    -705.5561440406 Ry

     new trust radius        =       0.0154025425 bohr
     new conv_thr            =            1.0E-10 Ry


ATOMIC_POSITIONS (crystal)
Mn1              0.3737248579        0.7508486584        0.7508529673
Mn2              0.8737242363        0.7508490805        0.7508533663
S                0.0012753633       -0.0008488111       -0.0008531042
S                0.5012755425       -0.0008489278       -0.0008532293



     Writing config-only to output data dir ./temp/mns.save/ :
     XML data file
     NEW-OLD atomic charge density approx. for the potential

     Check: negative core charge=   -0.000237
     Generating pointlists ...

     total cpu time spent up to now is       41.5 secs

     Self-consistent Calculation

     iteration #  1     ecut=    30.00 Ry     beta= 0.70
     Davidson diagonalization with overlap

---- Real-time Memory Report at c_bands before calling an iterative solver
            68 MiB given to the printing process from OS
             0 MiB allocation reported by mallinfo(arena+hblkhd)
          1907 MiB available memory on the node where the printing process lives
------------------
     ethr =  1.00E-06,  avg # of iterations =  6.2

     total cpu time spent up to now is       46.0 secs

     total energy              =    -705.55696437 Ry
     estimated scf accuracy    <       0.00014655 Ry

     total magnetization       =    -0.00 Bohr mag/cell
     absolute magnetization    =     9.02 Bohr mag/cell

     iteration #  2     ecut=    30.00 Ry     beta= 0.70
     Davidson diagonalization with overlap

---- Real-time Memory Report at c_bands before calling an iterative solver
            68 MiB given to the printing process from OS
             0 MiB allocation reported by mallinfo(arena+hblkhd)
          1902 MiB available memory on the node where the printing process lives
------------------
     ethr =  3.49E-07,  avg # of iterations =  2.0

     total cpu time spent up to now is       48.2 secs

     total energy              =    -705.55698741 Ry
     estimated scf accuracy    <       0.00001160 Ry

     total magnetization       =     0.00 Bohr mag/cell
     absolute magnetization    =     9.02 Bohr mag/cell

     iteration #  3     ecut=    30.00 Ry     beta= 0.70
     Davidson diagonalization with overlap

---- Real-time Memory Report at c_bands before calling an iterative solver
            68 MiB given to the printing process from OS
             0 MiB allocation reported by mallinfo(arena+hblkhd)
          1898 MiB available memory on the node where the printing process lives
------------------
     ethr =  2.76E-08,  avg # of iterations =  3.3

     total cpu time spent up to now is       50.8 secs

     total energy              =    -705.55698898 Ry
     estimated scf accuracy    <       0.00000286 Ry

     total magnetization       =    -0.00 Bohr mag/cell
     absolute magnetization    =     9.02 Bohr mag/cell

     iteration #  4     ecut=    30.00 Ry     beta= 0.70
     Davidson diagonalization with overlap

---- Real-time Memory Report at c_bands before calling an iterative solver
            68 MiB given to the printing process from OS
             0 MiB allocation reported by mallinfo(arena+hblkhd)
          1896 MiB available memory on the node where the printing process lives
------------------
     ethr =  6.80E-09,  avg # of iterations =  4.2

     total cpu time spent up to now is       53.7 secs

     total energy              =    -705.55698920 Ry
     estimated scf accuracy    <       0.00000598 Ry

     total magnetization       =     0.00 Bohr mag/cell
     absolute magnetization    =     9.02 Bohr mag/cell

     iteration #  5     ecut=    30.00 Ry     beta= 0.70
     Davidson diagonalization with overlap

---- Real-time Memory Report at c_bands before calling an iterative solver
            68 MiB given to the printing process from OS
             0 MiB allocation reported by mallinfo(arena+hblkhd)
          1898 MiB available memory on the node where the printing process lives
------------------
     ethr =  6.80E-09,  avg # of iterations =  4.1

     total cpu time spent up to now is       56.3 secs

     total energy              =    -705.55698996 Ry
     estimated scf accuracy    <       0.00000402 Ry

     total magnetization       =    -0.00 Bohr mag/cell
     absolute magnetization    =     9.02 Bohr mag/cell

     iteration #  6     ecut=    30.00 Ry     beta= 0.70
     Davidson diagonalization with overlap

---- Real-time Memory Report at c_bands before calling an iterative solver
            68 MiB given to the printing process from OS
             0 MiB allocation reported by mallinfo(arena+hblkhd)
          1899 MiB available memory on the node where the printing process lives
------------------
     ethr =  6.80E-09,  avg # of iterations =  2.0

     total cpu time spent up to now is       58.4 secs

     total energy              =    -705.55699042 Ry
     estimated scf accuracy    <       0.00000002 Ry

     total magnetization       =    -0.00 Bohr mag/cell
     absolute magnetization    =     9.02 Bohr mag/cell

     iteration #  7     ecut=    30.00 Ry     beta= 0.70
     Davidson diagonalization with overlap

---- Real-time Memory Report at c_bands before calling an iterative solver
            68 MiB given to the printing process from OS
             0 MiB allocation reported by mallinfo(arena+hblkhd)
          1897 MiB available memory on the node where the printing process lives
------------------
     ethr =  4.93E-11,  avg # of iterations =  6.2

     total cpu time spent up to now is       62.3 secs

     total energy              =    -705.55699046 Ry
     estimated scf accuracy    <       0.00000004 Ry

     total magnetization       =     0.00 Bohr mag/cell
     absolute magnetization    =     9.02 Bohr mag/cell

     iteration #  8     ecut=    30.00 Ry     beta= 0.70
     Davidson diagonalization with overlap

---- Real-time Memory Report at c_bands before calling an iterative solver
            68 MiB given to the printing process from OS
             0 MiB allocation reported by mallinfo(arena+hblkhd)
          1897 MiB available memory on the node where the printing process lives
------------------
     ethr =  4.93E-11,  avg # of iterations =  2.0

     total cpu time spent up to now is       64.5 secs

     total energy              =    -705.55699046 Ry
     estimated scf accuracy    <       0.00000001 Ry

     total magnetization       =     0.00 Bohr mag/cell
     absolute magnetization    =     9.02 Bohr mag/cell

     iteration #  9     ecut=    30.00 Ry     beta= 0.70
     Davidson diagonalization with overlap

---- Real-time Memory Report at c_bands before calling an iterative solver
            68 MiB given to the printing process from OS
             0 MiB allocation reported by mallinfo(arena+hblkhd)
          1895 MiB available memory on the node where the printing process lives
------------------
     ethr =  2.78E-11,  avg # of iterations =  2.4

     total cpu time spent up to now is       66.8 secs

     total energy              =    -705.55699046 Ry
[...]

   -74.4030 -70.0030 -43.1491 -43.1483 -43.0822 -38.8070 -38.7811 -38.7800
    -5.7116  -5.5580   2.5230   2.7162   3.2570   3.3518   3.9619   4.1919
     4.9410   5.0862   6.4699   6.5550   7.0589   8.5523   8.7917   9.2415
     9.8165

     occupation numbers 
     1.0000   1.0000   1.0000   1.0000   1.0000   1.0000   1.0000   1.0000
     1.0000   1.0000   1.0000   1.0000   1.0000   1.0000   1.0000   1.0000
     1.0000   1.0000   1.0000   1.0000   1.0000   0.0000   0.0000   0.0000
     0.0000

          k = 0.3333 0.2694-0.2994 (  1594 PWs)   bands (ev):

   -74.4030 -70.0029 -43.1490 -43.1484 -43.0822 -38.8070 -38.7809 -38.7800
    -5.8743  -5.3774   2.5388   2.8107   3.2572   3.3591   3.7390   4.1729
     5.0458   5.1324   6.1583   6.7079   7.0382   8.5638   8.8824   9.5496
     9.9268

     occupation numbers 
     1.0000   1.0000   1.0000   1.0000   1.0000   1.0000   1.0000   1.0000
     1.0000   1.0000   1.0000   1.0000   1.0000   1.0000   1.0000   1.0000
     1.0000   1.0000   1.0000   1.0000   1.0000   0.0000   0.0000   0.0000
     0.0000

          k = 0.3333 0.2694 0.1905 (  1598 PWs)   bands (ev):

   -74.4030 -70.0030 -43.1490 -43.1483 -43.0822 -38.8071 -38.7810 -38.7800
    -5.9235  -5.3179   2.4385   2.8900   3.2559   3.3629   3.7318   4.1627
     5.0464   5.1655   6.0918   6.6925   7.0510   8.6193   8.7939   9.4801
    10.0856

     occupation numbers 
     1.0000   1.0000   1.0000   1.0000   1.0000   1.0000   1.0000   1.0000
     1.0000   1.0000   1.0000   1.0000   1.0000   1.0000   1.0000   1.0000
     1.0000   1.0000   1.0000   1.0000   1.0000   0.0000   0.0000   0.0000
     0.0000

          k = 0.3333 0.2694 0.6804 (  1583 PWs)   bands (ev):

   -74.4028 -70.0028 -43.1498 -43.1488 -43.0820 -38.8068 -38.7823 -38.7807
    -5.6214  -5.2127   2.5909   2.8011   3.1659   3.3659   3.5126   4.0989
     4.9957   5.1502   5.5837   6.0961   6.5970   8.5107   8.8693   9.1211
     9.3004

     occupation numbers 
     1.0000   1.0000   1.0000   1.0000   1.0000   1.0000   1.0000   1.0000
     1.0000   1.0000   1.0000   1.0000   1.0000   1.0000   1.0000   1.0000
     1.0000   1.0000   1.0000   1.0000   1.0000   0.0000   0.0000   0.0000
     0.0000

          k = 0.3333 0.2694-1.2792 (  1576 PWs)   bands (ev):

   -74.4027 -70.0027 -43.1503 -43.1492 -43.0819 -38.8067 -38.7830 -38.7812
    -5.3668  -5.1953   2.3398   2.5986   3.1849   3.5416   3.6847   3.9505
     4.8398   5.2243   5.6347   5.8759   6.2754   8.3334   8.6414   9.1075
     9.2478

     occupation numbers 
     1.0000   1.0000   1.0000   1.0000   1.0000   1.0000   1.0000   1.0000
     1.0000   1.0000   1.0000   1.0000   1.0000   1.0000   1.0000   1.0000
     1.0000   1.0000   1.0000   1.0000   1.0000   0.0000   0.0000   0.0000
     0.0000

          k = 0.3333 0.2694-0.7893 (  1589 PWs)   bands (ev):

   -74.4029 -70.0028 -43.1498 -43.1488 -43.0821 -38.8069 -38.7823 -38.7807
    -5.5368  -5.3039   2.4081   2.6493   3.2466   3.4690   3.7137   4.0666
     4.9164   5.1760   5.7678   6.2279   6.5618   8.3864   8.7789   9.1071
     9.4273

     occupation numbers 
     1.0000   1.0000   1.0000   1.0000   1.0000   1.0000   1.0000   1.0000
     1.0000   1.0000   1.0000   1.0000   1.0000   1.0000   1.0000   1.0000
     1.0000   1.0000   1.0000   1.0000   1.0000   0.0000   0.0000   0.0000
     0.0000

          k = 0.3333 0.7313-0.4627 (  1583 PWs)   bands (ev):

   -74.4028 -70.0028 -43.1502 -43.1487 -43.0820 -38.8068 -38.7829 -38.7805
    -5.5149  -5.2178   2.3717   2.7983   3.2240   3.3794   3.4760   4.2150
     5.0507   5.1466   5.4667   6.0152   6.5603   8.5187   8.9882   9.0347
     9.3041

     occupation numbers 
     1.0000   1.0000   1.0000   1.0000   1.0000   1.0000   1.0000   1.0000
     1.0000   1.0000   1.0000   1.0000   1.0000   1.0000   1.0000   1.0000
     1.0000   1.0000   1.0000   1.0000   1.0000   0.0000   0.0000   0.0000
     0.0000

          k = 0.3333 0.7313 0.0272 (  1583 PWs)   bands (ev):

   -74.4028 -70.0028 -43.1498 -43.1488 -43.0820 -38.8068 -38.7823 -38.7807
    -5.6213  -5.2127   2.5908   2.8011   3.1659   3.3660   3.5126   4.0990
     4.9956   5.1502   5.5838   6.0960   6.5970   8.5106   8.8693   9.1210
     9.3003

     occupation numbers 
     1.0000   1.0000   1.0000   1.0000   1.0000   1.0000   1.0000   1.0000
     1.0000   1.0000   1.0000   1.0000   1.0000   1.0000   1.0000   1.0000
     1.0000   1.0000   1.0000   1.0000   1.0000   0.0000   0.0000   0.0000
     0.0000

          k = 0.3333 0.7313 0.5171 (  1587 PWs)   bands (ev):

   -74.4028 -70.0028 -43.1502 -43.1487 -43.0821 -38.8069 -38.7829 -38.7805
    -5.4764  -5.2600   2.3773   2.8305   3.1143   3.3828   3.5325   4.2147
     5.0777   5.1397   5.4857   5.9904   6.5668   8.5452   8.9807   9.0333
     9.2118

     occupation numbers 
     1.0000   1.0000   1.0000   1.0000   1.0000   1.0000   1.0000   1.0000
     1.0000   1.0000   1.0000   1.0000   1.0000   1.0000   1.0000   1.0000
     1.0000   1.0000   1.0000   1.0000   1.0000   0.0000   0.0000   0.0000
     0.0000

          k = 0.3333 0.7313-1.4425 (  1573 PWs)   bands (ev):

   -74.4027 -70.0027 -43.1502 -43.1491 -43.0820 -38.8067 -38.7829 -38.7812
    -5.3483  -5.2174   2.4756   2.7877   3.0590   3.3363   3.6204   4.0363
     4.8558   5.2447   5.5570   5.8119   6.2186   8.3158   8.8025   9.0352
     9.1760

     occupation numbers 
     1.0000   1.0000   1.0000   1.0000   1.0000   1.0000   1.0000   1.0000
     1.0000   1.0000   1.0000   1.0000   1.0000   1.0000   1.0000   1.0000
     1.0000   1.0000   1.0000   1.0000   1.0000   0.0000   0.0000   0.0000
     0.0000

          k = 0.3333 0.7313-0.9526 (  1579 PWs)   bands (ev):

   -74.4028 -70.0027 -43.1503 -43.1492 -43.0820 -38.8067 -38.7830 -38.7813
    -5.3387  -5.2286   2.5539   2.9173   2.9978   3.1793   3.6023   4.0578
     4.8483   5.2456   5.5033   5.8059   6.1947   8.2866   8.8347   9.0371
     9.1380

     occupation numbers 
     1.0000   1.0000   1.0000   1.0000   1.0000   1.0000   1.0000   1.0000
     1.0000   1.0000   1.0000   1.0000   1.0000   1.0000   1.0000   1.0000
     1.0000   1.0000   1.0000   1.0000   1.0000   0.0000   0.0000   0.0000
     0.0000

          k = 0.3333-1.1162 0.1905 (  1581 PWs)   bands (ev):

   -74.4028 -70.0028 -43.1502 -43.1487 -43.0820 -38.8068 -38.7829 -38.7805
    -5.4255  -5.3100   2.2370   2.5713   3.3285   3.3958   3.7493   4.2177
     5.0755   5.1344   5.6034   6.0877   6.5901   8.5457   8.9105   8.9377
     9.2311

     occupation numbers 
     1.0000   1.0000   1.0000   1.0000   1.0000   1.0000   1.0000   1.0000
     1.0000   1.0000   1.0000   1.0000   1.0000   1.0000   1.0000   1.0000
     1.0000   1.0000   1.0000   1.0000   1.0000   0.0000   0.0000   0.0000
     0.0000

          k = 0.3333-1.1162 0.6804 (  1576 PWs)   bands (ev):

   -74.4027 -70.0027 -43.1502 -43.1492 -43.0819 -38.8067 -38.7829 -38.7813
    -5.3668  -5.1953   2.3398   2.5985   3.1850   3.5417   3.6847   3.9505
     4.8397   5.2244   5.6347   5.8759   6.2753   8.3333   8.6414   9.1075
     9.2477

     occupation numbers 
     1.0000   1.0000   1.0000   1.0000   1.0000   1.0000   1.0000   1.0000
     1.0000   1.0000   1.0000   1.0000   1.0000   1.0000   1.0000   1.0000
     1.0000   1.0000   1.0000   1.0000   1.0000   0.0000   0.0000   0.0000
     0.0000

          k = 0.3333-1.1162 1.1703 (  1573 PWs)   bands (ev):

   -74.4027 -70.0027 -43.1502 -43.1491 -43.0820 -38.8067 -38.7829 -38.7812
    -5.3483  -5.2174   2.4756   2.7877   3.0590   3.3364   3.6203   4.0363
     4.8558   5.2447   5.5570   5.8119   6.2185   8.3159   8.8025   9.0353
     9.1760

     occupation numbers 
     1.0000   1.0000   1.0000   1.0000   1.0000   1.0000   1.0000   1.0000
     1.0000   1.0000   1.0000   1.0000   1.0000   1.0000   1.0000   1.0000
     1.0000   1.0000   1.0000   1.0000   1.0000   0.0000   0.0000   0.0000
     0.0000

          k = 0.3333-1.1162-0.7893 (  1577 PWs)   bands (ev):

   -74.4028 -70.0027 -43.1502 -43.1486 -43.0820 -38.8067 -38.7829 -38.7805
    -5.5325  -5.1943   2.2235   2.5703   3.3930   3.4415   3.6911   4.2168
     5.0084   5.1416   5.5342   6.1144   6.5795   8.4522   8.9377   9.0263
     9.3952

     occupation numbers 
     1.0000   1.0000   1.0000   1.0000   1.0000   1.0000   1.0000   1.0000
     1.0000   1.0000   1.0000   1.0000   1.0000   1.0000   1.0000   1.0000
     1.0000   1.0000   1.0000   1.0000   1.0000   0.0000   0.0000   0.0000
     0.0000

          k = 0.3333-1.1162-0.2994 (  1580 PWs)   bands (ev):

   -74.4028 -70.0028 -43.1498 -43.1488 -43.0820 -38.8068 -38.7822 -38.7807
    -5.5654  -5.2729   2.4517   2.6908   3.2254   3.4689   3.6442   4.0848
     4.9480   5.1728   5.7191   6.1942   6.5813   8.4171   8.8113   9.1347
     9.4139

     occupation numbers 
     1.0000   1.0000   1.0000   1.0000   1.0000   1.0000   1.0000   1.0000
     1.0000   1.0000   1.0000   1.0000   1.0000   1.0000   1.0000   1.0000
     1.0000   1.0000   1.0000   1.0000   1.0000   0.0000   0.0000   0.0000
     0.0000

          k = 0.3333-0.6543 0.0272 (  1602 PWs)   bands (ev):

   -74.4030 -70.0030 -43.1491 -43.1484 -43.0822 -38.8070 -38.7810 -38.7800
    -5.7116  -5.5580   2.5230   2.7161   3.2571   3.3519   3.9618   4.1920
     4.9409   5.0863   6.4699   6.5550   7.0588   8.5522   8.7918   9.2415
     9.8164

     occupation numbers 
     1.0000   1.0000   1.0000   1.0000   1.0000   1.0000   1.0000   1.0000
     1.0000   1.0000   1.0000   1.0000   1.0000   1.0000   1.0000   1.0000
     1.0000   1.0000   1.0000   1.0000   1.0000   0.0000   0.0000   0.0000
     0.0000

          k = 0.3333-0.6543 0.5171 (  1589 PWs)   bands (ev):

   -74.4029 -70.0028 -43.1498 -43.1488 -43.0821 -38.8069 -38.7823 -38.7807
    -5.5368  -5.3039   2.4081   2.6493   3.2466   3.4689   3.7138   4.0666
     4.9164   5.1760   5.7679   6.2280   6.5617   8.3863   8.7789   9.1070
     9.4272

     occupation numbers 
     1.0000   1.0000   1.0000   1.0000   1.0000   1.0000   1.0000   1.0000
     1.0000   1.0000   1.0000   1.0000   1.0000   1.0000   1.0000   1.0000
     1.0000   1.0000   1.0000   1.0000   1.0000   0.0000   0.0000   0.0000
     0.0000

          k = 0.3333-0.6543 1.0070 (  1579 PWs)   bands (ev):

   -74.4028 -70.0027 -43.1503 -43.1492 -43.0820 -38.8067 -38.7830 -38.7813
    -5.3387  -5.2286   2.5539   2.9173   2.9978   3.1793   3.6023   4.0577
     4.8484   5.2455   5.5033   5.8060   6.1948   8.2867   8.8347   9.0371
     9.1380

     occupation numbers 
     1.0000   1.0000   1.0000   1.0000   1.0000   1.0000   1.0000   1.0000
     1.0000   1.0000   1.0000   1.0000   1.0000   1.0000   1.0000   1.0000
     1.0000   1.0000   1.0000   1.0000   1.0000   0.0000   0.0000   0.0000
     0.0000

          k = 0.3333-0.6543-0.9526 (  1580 PWs)   bands (ev):

   -74.4028 -70.0028 -43.1498 -43.1488 -43.0820 -38.8068 -38.7823 -38.7807
    -5.5654  -5.2729   2.4518   2.6908   3.2254   3.4688   3.6443   4.0847
     4.9481   5.1728   5.7191   6.1943   6.5813   8.4172   8.8114   9.1347
     9.4139

     occupation numbers 
     1.0000   1.0000   1.0000   1.0000   1.0000   1.0000   1.0000   1.0000
     1.0000   1.0000   1.0000   1.0000   1.0000   1.0000   1.0000   1.0000
     1.0000   1.0000   1.0000   1.0000   1.0000   0.0000   0.0000   0.0000
     0.0000

          k = 0.3333-0.6543-0.4627 (  1599 PWs)   bands (ev):

   -74.4030 -70.0030 -43.1491 -43.1484 -43.0822 -38.8070 -38.7810 -38.7800
    -5.7524  -5.5143   2.4859   2.7467   3.2583   3.3524   3.9586   4.1914
     4.9532   5.1034   6.4197   6.5892   7.0640   8.5844   8.7773   9.2604
     9.7936

     occupation numbers 
     1.0000   1.0000   1.0000   1.0000   1.0000   1.0000   1.0000   1.0000
     1.0000   1.0000   1.0000   1.0000   1.0000   1.0000   1.0000   1.0000
     1.0000   1.0000   1.0000   1.0000   1.0000   0.0000   0.0000   0.0000
     0.0000

     the Fermi energy is     7.8188 ev

!    total energy              =    -705.55818071 Ry
     total all-electron energy =     -6231.274988 Ry
     estimated scf accuracy    <          7.7E-14 Ry
     smearing contrib. (-TS)   =      -0.00000001 Ry
     internal energy E=F+TS    =    -705.55818070 Ry

     The total energy is F=E-TS. E is the sum of the following terms:
     one-electron contribution =    -304.66517638 Ry
     hartree contribution      =     169.26312921 Ry
     xc contribution           =     -66.17885035 Ry
     ewald contribution        =    -256.46491089 Ry
     one-center paw contrib.   =    -247.51237230 Ry
      -> PAW hartree energy AE =     175.27724699 Ry
      -> PAW hartree energy PS =    -176.23879244 Ry
      -> PAW xc energy AE      =    -104.51254940 Ry
      -> PAW xc energy PS      =      27.85323231 Ry
      -> total E_H with PAW    =     168.30158376 Ry
      -> total E_XC with PAW   =    -142.83816743 Ry

     total magnetization       =    -0.00 Bohr mag/cell
     absolute magnetization    =     8.97 Bohr mag/cell

     convergence has been achieved in  10 iterations

     Forces acting on atoms (cartesian axes, Ry/au):

     atom    1 type  1   force =    -0.00000205    0.00000118    0.00000218
     atom    2 type  2   force =     0.00000098   -0.00000056    0.00000095
     atom    3 type  3   force =     0.00000044   -0.00000026   -0.00000153
     atom    4 type  3   force =     0.00000062   -0.00000036   -0.00000159
     The non-local contrib.  to forces
     atom    1 type  1   force =     0.00296627   -0.00171258   -0.00117910
     atom    2 type  2   force =     0.00296143   -0.00170978   -0.00117711
     atom    3 type  3   force =    -0.00203515    0.00117500    0.00084287
     atom    4 type  3   force =    -0.00203362    0.00117411    0.00084226
     The ionic contribution  to forces
     atom    1 type  1   force =     0.30741475   -0.17748748   -0.12587358
     atom    2 type  2   force =     0.30776657   -0.17769060   -0.12601681
     atom    3 type  3   force =    -0.30752986    0.17755394    0.12592026
     atom    4 type  3   force =    -0.30765146    0.17762415    0.12597013
     The local contribution  to forces
     atom    1 type  1   force =    -0.31394840    0.18125981    0.12851070
     atom    2 type  2   force =    -0.31429471    0.18145975    0.12865167
     atom    3 type  3   force =     0.30891371   -0.17835264   -0.12649695
     atom    4 type  3   force =     0.30903429   -0.17842225   -0.12654640
     The core correction contribution to forces
     atom    1 type  1   force =     0.00327761   -0.00189232   -0.00133784
     atom    2 type  2   force =     0.00327903   -0.00189314   -0.00133842
     atom    3 type  3   force =     0.00036343   -0.00020983   -0.00014945
     atom    4 type  3   force =     0.00036343   -0.00020983   -0.00014945
     The Hubbard contrib.    to forces
     atom    1 type  1   force =     0.00000000    0.00000000    0.00000000
     atom    2 type  2   force =     0.00000000    0.00000000    0.00000000
     atom    3 type  3   force =     0.00000000    0.00000000    0.00000000
     atom    4 type  3   force =     0.00000000    0.00000000    0.00000000
     The SCF correction term to forces
     atom    1 type  1   force =    -0.00000046    0.00000027    0.00000019
     atom    2 type  2   force =     0.00000046   -0.00000026   -0.00000019
     atom    3 type  3   force =     0.00000018   -0.00000010   -0.00000008
     atom    4 type  3   force =    -0.00000015    0.00000009    0.00000006

     Total force =     0.000004     Total SCF correction =     0.000001
     SCF correction compared to forces is large: reduce conv_thr to get better values
     Energy error            =      6.9E-08 Ry
     Gradient error          =      2.2E-06 Ry/Bohr

     bfgs converged in   6 scf cycles and   5 bfgs steps
     (criteria: energy <  1.0E-05 Ry, force <  1.0E-04 Ry/Bohr)

     End of BFGS Geometry Optimization

     Final energy             =    -705.5581807101 Ry

     File ./temp/mns.bfgs deleted, as requested
Begin final coordinates

ATOMIC_POSITIONS (crystal)
Mn1              0.3697678046        0.7534821736        0.7535000429
Mn2              0.8697658099        0.7534835034        0.7535013726
S                0.0052335881       -0.0034831053       -0.0035009647
S                0.5052327975       -0.0034825717       -0.0035004508
End final coordinates



     Writing all to output data dir ./temp/mns.save/ :
     XML data file, charge density, pseudopotentials, collected wavefunctions

     init_run     :      1.34s CPU      1.58s WALL (       1 calls)
     electrons    :    177.85s CPU    196.09s WALL (       6 calls)
     update_pot   :      1.32s CPU      1.56s WALL (       5 calls)
     forces       :      2.41s CPU      2.68s WALL (       6 calls)

     Called by init_run:
     wfcinit      :      0.66s CPU      0.75s WALL (       1 calls)
     wfcinit:atom :      0.01s CPU      0.01s WALL (      76 calls)
     wfcinit:wfcr :      0.62s CPU      0.71s WALL (      76 calls)
     potinit      :      0.38s CPU      0.43s WALL (       1 calls)
     hinit0       :      0.25s CPU      0.29s WALL (       1 calls)

     Called by electrons:
     c_bands      :    135.22s CPU    147.41s WALL (      73 calls)
     sum_band     :     20.85s CPU     23.39s WALL (      73 calls)
     v_of_rho     :      0.77s CPU      0.87s WALL (      76 calls)
     v_h          :      0.02s CPU      0.03s WALL (      76 calls)
     v_xc         :      0.81s CPU      0.91s WALL (      82 calls)
     newd         :      3.58s CPU      4.10s WALL (      76 calls)
     PAW_pot      :     20.23s CPU     23.33s WALL (      81 calls)
     mix_rho      :      0.17s CPU      0.18s WALL (      73 calls)

     Called by c_bands:
     init_us_2    :      1.73s CPU      1.90s WALL (   12008 calls)
     cegterg      :    130.53s CPU    142.27s WALL (    5548 calls)

     Called by sum_band:
     sum_band:wei :      0.04s CPU      0.05s WALL (      73 calls)
     sum_band:loo :     14.91s CPU     16.70s WALL (      73 calls)
     sum_band:buf :      0.30s CPU      0.33s WALL (    5548 calls)
     sum_band:ini :      0.72s CPU      0.80s WALL (    5548 calls)
     sum_band:cal :      4.77s CPU      5.36s WALL (    5928 calls)
     sum_band:bec :      0.29s CPU      0.32s WALL (    5928 calls)
     addusdens    :      5.71s CPU      6.43s WALL (      73 calls)
                                        0.00s GPU  (      73 calls)
     addusd:skk   :      0.01s CPU      0.02s WALL (     219 calls)
                                        0.00s GPU  (     219 calls)

     Called by *egterg:
     cdiaghg      :     17.09s CPU     18.46s WALL (   24131 calls)
     cegterg:over :     10.70s CPU     11.77s WALL (   19191 calls)
     cegterg:upda :      4.53s CPU      4.84s WALL (   19191 calls)
     cegterg:last :     10.98s CPU     11.79s WALL (   12714 calls)
     h_psi        :     71.62s CPU     78.27s WALL (   24815 calls)
     s_psi        :      9.48s CPU     10.33s WALL (   24815 calls)
     g_psi        :      0.22s CPU      0.24s WALL (   19191 calls)

     Called by h_psi:
     h_psi:calbec :     13.59s CPU     14.91s WALL (   24815 calls)
     vloc_psi     :     47.75s CPU     52.21s WALL (   24815 calls)
     add_vuspsi   :      9.59s CPU     10.42s WALL (   24815 calls)

     General routines
     calbec       :     19.80s CPU     21.88s WALL (   32567 calls)
     fft          :      0.53s CPU      0.59s WALL (    1989 calls)
     ffts         :      0.10s CPU      0.11s WALL (     298 calls)
     fftw         :     50.53s CPU     55.66s WALL (  898992 calls)
     interpolate  :      0.13s CPU      0.14s WALL (     152 calls)

     Parallel routines

     PAW routines
     PAW_pot      :     20.23s CPU     23.33s WALL (      81 calls)
     PAW_symme    :      0.01s CPU      0.01s WALL (     154 calls)

     PWSCF        :   3m 5.23s CPU   3m24.64s WALL


   This run was terminated on:   0:41:43  18Jan2025            

=------------------------------------------------------------------------------=
   JOB DONE.
=------------------------------------------------------------------------------=
