
     Program PWSCF v.7.3.1 starts on 25Dec2024 at 22:19:14 

     This program is part of the open-source Quantum ESPRESSO suite
     for quantum simulation of materials; please cite
         "P. Giannozzi et al., J. Phys.:Condens. Matter 21 395502 (2009);
         "P. Giannozzi et al., J. Phys.:Condens. Matter 29 465901 (2017);
         "P. Giannozzi et al., J. Chem. Phys. 152 154105 (2020);
          URL http://www.quantum-espresso.org", 
     in publications or presentations arising from this work. More details at
     http://www.quantum-espresso.org/quote

     Parallel version (MPI), running on     4 processors

     MPI processes distributed on     1 nodes
     8878 MiB available memory on the printing compute node when the environment starts

     Reading input from vc_relax.in

     Current dimensions of program PWSCF are:
     Max number of different atomic species (ntypx) = 10
     Max number of k-points (npk) =  40000
     Max angular momentum in pseudopotentials (lmaxx) =  4
     file C.pbesol-n-kjpaw_psl.1.0.0.UPF: wavefunction(s)  2S 2P renormalized

     R & G space division:  proc/nbgrp/npool/nimage =       4
     Subspace diagonalization in iterative solution of the eigenvalue problem:
     a serial algorithm will be used


     Parallelization info
     --------------------
     sticks:   dense  smooth     PW     G-vecs:    dense   smooth      PW
     Min         118      60     21                 6686     2388     447
     Max         119      61     22                 6699     2397     454
     Sum         475     241     85                26777     9563    1799

     Using Slab Decomposition



     bravais-lattice index     =            4
     lattice parameter (alat)  =       4.6625  a.u.
     unit-cell volume          =     277.6091 (a.u.)^3
     number of atoms/cell      =            4
     number of atomic types    =            1
     number of electrons       =        16.00
     number of Kohn-Sham states=           12
     kinetic-energy cutoff     =      40.0000  Ry
     charge density cutoff     =     320.0000  Ry
     scf convergence threshold =      1.0E-07
     mixing beta               =       0.7000
     number of iterations used =            8  plain     mixing
     energy convergence thresh.=      1.0E-05
     force convergence thresh. =      1.0E-04
     press convergence thresh. =      5.0E-01
     Exchange-correlation= SLA  PW   PSX  PSC
                           (   1   4  10   8   0   0   0)
     nstep                     =           50


     celldm(1)=   4.662505  celldm(2)=   0.000000  celldm(3)=   3.162607
     celldm(4)=   0.000000  celldm(5)=   0.000000  celldm(6)=   0.000000

     crystal axes: (cart. coord. in units of alat)
               a(1) = (   1.000000   0.000000   0.000000 )  
               a(2) = (  -0.500000   0.866025   0.000000 )  
               a(3) = (   0.000000   0.000000   3.162607 )  

     reciprocal axes: (cart. coord. in units 2 pi/alat)
               b(1) = (  1.000000  0.577350 -0.000000 )  
               b(2) = (  0.000000  1.154701  0.000000 )  
               b(3) = (  0.000000 -0.000000  0.316195 )  


     PseudoPot. # 1 for C  read from file:
     ./../../pseudos/C.pbesol-n-kjpaw_psl.1.0.0.UPF
     MD5 check sum: f9b2fe17d1f478429498b05d17159f9e
     Pseudo is Projector augmented-wave + core cor, Zval =  4.0
     Generated using &quot;atomic&quot; code by A. Dal Corso  v.6.3
     Shape of augmentation charge: PSQ
     Using radial grid of 1073 points,  4 beta functions with: 
                l(1) =   0
                l(2) =   0
                l(3) =   1
                l(4) =   1
     Q(r) pseudized with 0 coefficients 


     atomic species   valence    mass     pseudopotential
     C                 4.00    12.01100     C ( 1.00)

     24 Sym. Ops., with inversion, found (12 have fractional translation)



   Cartesian axes

     site n.     atom                  positions (alat units)
         1        C      tau(   1) = (   0.0000000   0.0000000   0.7906518  )
         2        C      tau(   2) = (   0.0000000   0.0000000   2.3719553  )
         3        C      tau(   3) = (   0.0000000   0.5773503   0.7906518  )
         4        C      tau(   4) = (   0.5000000   0.2886751   2.3719553  )

     -------------------------------------------------
     Parameters for Dispersion (Grimme-D2) Correction:
     -------------------------------------------------
       atom      VdW radius       C_6     

        C          2.744         60.710

     number of k points=    57  Gaussian smearing, width (Ry)=  0.0200
                       cart. coord. in units 2pi/alat
        k(    1) = (   0.0000000   0.0000000   0.0000000), wk =   0.0034722
        k(    2) = (   0.0000000   0.0000000   0.0790487), wk =   0.0069444
        k(    3) = (   0.0000000   0.0000000  -0.1580974), wk =   0.0034722
        k(    4) = (   0.0000000   0.0962250   0.0000000), wk =   0.0208333
        k(    5) = (   0.0000000   0.0962250   0.0790487), wk =   0.0416667
        k(    6) = (   0.0000000   0.0962250  -0.1580974), wk =   0.0208333
        k(    7) = (   0.0000000   0.1924501   0.0000000), wk =   0.0208333
        k(    8) = (   0.0000000   0.1924501   0.0790487), wk =   0.0416667
        k(    9) = (   0.0000000   0.1924501  -0.1580974), wk =   0.0208333
        k(   10) = (   0.0000000   0.2886751   0.0000000), wk =   0.0208333
        k(   11) = (   0.0000000   0.2886751   0.0790487), wk =   0.0416667
        k(   12) = (   0.0000000   0.2886751  -0.1580974), wk =   0.0208333
        k(   13) = (   0.0000000   0.3849002   0.0000000), wk =   0.0208333
        k(   14) = (   0.0000000   0.3849002   0.0790487), wk =   0.0416667
        k(   15) = (   0.0000000   0.3849002  -0.1580974), wk =   0.0208333
        k(   16) = (   0.0000000   0.4811252   0.0000000), wk =   0.0208333
        k(   17) = (   0.0000000   0.4811252   0.0790487), wk =   0.0416667
        k(   18) = (   0.0000000   0.4811252  -0.1580974), wk =   0.0208333
        k(   19) = (   0.0000000  -0.5773503   0.0000000), wk =   0.0104167
        k(   20) = (   0.0000000  -0.5773503   0.0790487), wk =   0.0208333
        k(   21) = (   0.0000000  -0.5773503  -0.1580974), wk =   0.0104167
        k(   22) = (   0.0833333   0.1443376   0.0000000), wk =   0.0208333
        k(   23) = (   0.0833333   0.1443376   0.0790487), wk =   0.0416667
        k(   24) = (   0.0833333   0.1443376  -0.1580974), wk =   0.0208333
        k(   25) = (   0.0833333   0.2405626   0.0000000), wk =   0.0416667
        k(   26) = (   0.0833333   0.2405626   0.0790487), wk =   0.0833333
        k(   27) = (   0.0833333   0.2405626  -0.1580974), wk =   0.0416667
        k(   28) = (   0.0833333   0.3367877   0.0000000), wk =   0.0416667
        k(   29) = (   0.0833333   0.3367877   0.0790487), wk =   0.0833333
        k(   30) = (   0.0833333   0.3367877  -0.1580974), wk =   0.0416667
        k(   31) = (   0.0833333   0.4330127   0.0000000), wk =   0.0416667
        k(   32) = (   0.0833333   0.4330127   0.0790487), wk =   0.0833333
        k(   33) = (   0.0833333   0.4330127  -0.1580974), wk =   0.0416667
        k(   34) = (   0.0833333   0.5292377   0.0000000), wk =   0.0416667
        k(   35) = (   0.0833333   0.5292377   0.0790487), wk =   0.0833333
        k(   36) = (   0.0833333   0.5292377  -0.1580974), wk =   0.0416667
        k(   37) = (   0.1666667   0.2886751   0.0000000), wk =   0.0208333
        k(   38) = (   0.1666667   0.2886751   0.0790487), wk =   0.0416667
        k(   39) = (   0.1666667   0.2886751  -0.1580974), wk =   0.0208333
        k(   40) = (   0.1666667   0.3849002   0.0000000), wk =   0.0416667
        k(   41) = (   0.1666667   0.3849002   0.0790487), wk =   0.0833333
        k(   42) = (   0.1666667   0.3849002  -0.1580974), wk =   0.0416667
        k(   43) = (   0.1666667   0.4811252   0.0000000), wk =   0.0416667
        k(   44) = (   0.1666667   0.4811252   0.0790487), wk =   0.0833333
        k(   45) = (   0.1666667   0.4811252  -0.1580974), wk =   0.0416667
        k(   46) = (   0.1666667   0.5773503   0.0000000), wk =   0.0208333
        k(   47) = (   0.1666667   0.5773503   0.0790487), wk =   0.0416667
        k(   48) = (   0.1666667   0.5773503  -0.1580974), wk =   0.0208333
        k(   49) = (   0.2500000   0.4330127   0.0000000), wk =   0.0208333
        k(   50) = (   0.2500000   0.4330127   0.0790487), wk =   0.0416667
        k(   51) = (   0.2500000   0.4330127  -0.1580974), wk =   0.0208333
        k(   52) = (   0.2500000   0.5292377   0.0000000), wk =   0.0416667
        k(   53) = (   0.2500000   0.5292377   0.0790487), wk =   0.0833333
        k(   54) = (   0.2500000   0.5292377  -0.1580974), wk =   0.0416667
        k(   55) = (   0.3333333   0.5773503   0.0000000), wk =   0.0069444
        k(   56) = (   0.3333333   0.5773503   0.0790487), wk =   0.0138889
        k(   57) = (   0.3333333   0.5773503  -0.1580974), wk =   0.0069444

     Dense  grid:    26777 G-vectors     FFT dimensions: (  27,  27,  90)

     Smooth grid:     9563 G-vectors     FFT dimensions: (  20,  20,  60)

     Estimated max dynamical RAM per process >      13.48 MB

     Estimated total dynamical RAM >      53.94 MB

     Check: negative core charge=   -0.000011

     Initial potential from superposition of free atoms

     starting charge      15.9998, renormalised to      16.0000
     Starting wfcs are   16 randomized atomic wfcs
     Checking if some PAW data can be deallocated... 

     total cpu time spent up to now is        0.8 secs

     Self-consistent Calculation

     iteration #  1     ecut=    40.00 Ry     beta= 0.70
     Davidson diagonalization with overlap
     ethr =  1.00E-02,  avg # of iterations =  2.9

     total cpu time spent up to now is        1.9 secs

     total energy              =     -72.44051028 Ry
     estimated scf accuracy    <       0.37122049 Ry

     iteration #  2     ecut=    40.00 Ry     beta= 0.70
     Davidson diagonalization with overlap
     ethr =  2.32E-03,  avg # of iterations =  2.6

     total cpu time spent up to now is        2.6 secs

     total energy              =     -72.48965798 Ry
     estimated scf accuracy    <       0.00374557 Ry

     iteration #  3     ecut=    40.00 Ry     beta= 0.70
     Davidson diagonalization with overlap
     c_bands:  1 eigenvalues not converged
     ethr =  2.34E-05,  avg # of iterations =  7.2

     total cpu time spent up to now is        3.5 secs

     total energy              =     -72.49011633 Ry
     estimated scf accuracy    <       0.00026598 Ry

     iteration #  4     ecut=    40.00 Ry     beta= 0.70
     Davidson diagonalization with overlap
     ethr =  1.66E-06,  avg # of iterations =  4.1

     total cpu time spent up to now is        4.2 secs

     total energy              =     -72.49014007 Ry
     estimated scf accuracy    <       0.00000420 Ry

     iteration #  5     ecut=    40.00 Ry     beta= 0.70
     Davidson diagonalization with overlap
     ethr =  2.63E-08,  avg # of iterations =  2.9

     total cpu time spent up to now is        4.9 secs

     total energy              =     -72.49014212 Ry
     estimated scf accuracy    <       0.00000029 Ry

     iteration #  6     ecut=    40.00 Ry     beta= 0.70
     Davidson diagonalization with overlap
     ethr =  1.78E-09,  avg # of iterations =  2.1

     total cpu time spent up to now is        5.5 secs

     End of self-consistent calculation

          k = 0.0000 0.0000 0.0000 (  1193 PWs)   bands (ev):

   -14.1529 -14.0668  -2.6970  -1.8294   2.3528   2.3528   2.3571   2.3571
     8.6153  13.6477  13.6478  13.6615

          k = 0.0000 0.0000 0.0790 (  1212 PWs)   bands (ev):

   -14.1405 -14.0797  -2.5828  -1.9715   2.3531   2.3531   2.3558   2.3558
     9.0683  11.8824  13.6497  13.6504

          k = 0.0000 0.0000-0.1581 (  1194 PWs)   bands (ev):

   -14.1102 -14.1102  -2.2905  -2.2905   2.3544   2.3544   2.3544   2.3544
    10.2870  10.2870  13.6543  13.6543

          k = 0.0000 0.0962 0.0000 (  1206 PWs)   bands (ev):

   -13.9885 -13.9033  -2.4977  -1.6368   1.7009   1.7072   2.0107   2.0163
     8.8253  13.6980  13.7291  14.3461

          k = 0.0000 0.0962 0.0790 (  1197 PWs)   bands (ev):

   -13.9762 -13.9161  -2.3843  -1.7776   1.7017   1.7066   2.0120   2.0157
     9.2757  12.0719  13.7099  13.7266

          k = 0.0000 0.0962-0.1581 (  1182 PWs)   bands (ev):

   -13.9463 -13.9463  -2.0943  -2.0943   1.7043   1.7043   2.0141   2.0141
    10.4872  10.4872  13.7196  13.7198

          k = 0.0000 0.1925 0.0000 (  1182 PWs)   bands (ev):

   -13.4969 -13.4148  -1.9044  -1.0648   0.0591   0.0736   1.2133   1.2209
     9.4561  13.5580  13.6173  13.6860

          k = 0.0000 0.1925 0.0790 (  1184 PWs)   bands (ev):

   -13.4850 -13.4270  -1.7934  -1.2017   0.0612   0.0710   1.2140   1.2198
     9.8977  12.6246  13.6499  13.6818

          k = 0.0000 0.1925-0.1581 (  1194 PWs)   bands (ev):

   -13.4563 -13.4563  -1.5104  -1.5104   0.0657   0.0657   1.2170   1.2170
    11.0839  11.0839  13.6658  13.6658

          k = 0.0000 0.2887 0.0000 (  1186 PWs)   bands (ev):

   -12.6840 -12.6068  -2.0447  -2.0215  -0.9342  -0.1343   0.3280   0.3383
    10.5046  12.4747  12.6935  13.3205

          k = 0.0000 0.2887 0.0790 (  1192 PWs)   bands (ev):

   -12.6729 -12.6183  -2.0416  -2.0250  -0.8280  -0.2642   0.3294   0.3369
    10.9213  12.5056  12.6343  13.2835

          k = 0.0000 0.2887-0.1581 (  1174 PWs)   bands (ev):

   -12.6457 -12.6457  -2.0334  -2.0334  -0.5576  -0.5576   0.3337   0.3337
    11.9838  11.9840  12.7011  12.7016

          k = 0.0000 0.3849 0.0000 (  1192 PWs)   bands (ev):

   -11.5615 -11.4910  -4.2550  -4.2214  -0.4081  -0.3967   0.3686   1.0985
    10.0939  10.4520  11.9522  12.9834

          k = 0.0000 0.3849 0.0790 (  1184 PWs)   bands (ev):

   -11.5513 -11.5015  -4.2499  -4.2261  -0.4063  -0.3987   0.4665   0.9813
    10.1320  10.3878  12.3608  12.9930

          k = 0.0000 0.3849-0.1581 (  1182 PWs)   bands (ev):

   -11.5266 -11.5266  -4.2380  -4.2380  -0.4024  -0.4024   0.7144   0.7144
    10.2482  10.2482  12.9705  12.9705

          k = 0.0000 0.4811 0.0000 (  1196 PWs)   bands (ev):

   -10.1587 -10.0968  -6.3632  -6.3207  -0.8822  -0.8715   1.8640   2.4445
     7.9163   8.3484  12.7279  12.8368

          k = 0.0000 0.4811 0.0790 (  1193 PWs)   bands (ev):

   -10.1497 -10.1060  -6.3570  -6.3268  -0.8808  -0.8728   1.9445   2.3545
     7.9657   8.2717  12.7453  12.8229

          k = 0.0000 0.4811-0.1581 (  1188 PWs)   bands (ev):

   -10.1280 -10.1280  -6.3419  -6.3419  -0.8767  -0.8767   2.1448   2.1448
     8.1056   8.1056  12.7853  12.7853

          k = 0.0000-0.5774 0.0000 (  1188 PWs)   bands (ev):

    -8.8589  -8.8291  -7.8803  -7.8568  -1.0450  -1.0343   2.8499   3.1292
     6.8654   7.2195  12.6445  12.7654

          k = 0.0000-0.5774 0.0790 (  1190 PWs)   bands (ev):

    -8.8543  -8.8333  -7.8772  -7.8606  -1.0434  -1.0358   2.8948   3.0934
     6.8943   7.1452  12.6619  12.7475

          k = 0.0000-0.5774-0.1581 (  1204 PWs)   bands (ev):

    -8.8437  -8.8437  -7.8693  -7.8693  -1.0398  -1.0398   2.9983   2.9983
     6.9972   6.9972  12.7042  12.7042

          k = 0.0833 0.1443 0.0000 (  1195 PWs)   bands (ev):

   -13.6605 -13.5774  -2.1013  -1.2544   0.6686   0.6753   1.3282   1.3333
     9.2464  13.3941  13.9692  14.0249

          k = 0.0833 0.1443 0.0790 (  1192 PWs)   bands (ev):

   -13.6485 -13.5898  -1.9895  -1.3927   0.6695   0.6743   1.3291   1.3328
     9.6912  12.4489  13.9948  14.0204

          k = 0.0833 0.1443-0.1581 (  1192 PWs)   bands (ev):

   -13.6193 -13.6193  -1.7040  -1.7040   0.6719   0.6719   1.3307   1.3307
    10.8873  10.8873  14.0095  14.0096

          k = 0.0833 0.2406 0.0000 (  1191 PWs)   bands (ev):

   -13.0082 -12.9291  -1.3186  -1.0451  -1.0297  -0.5017   0.3226   0.3321
    10.0882  13.3679  13.5005  14.0921

          k = 0.0833 0.2406 0.0790 (  1192 PWs)   bands (ev):

   -12.9968 -12.9409  -1.2103  -1.0429  -1.0319  -0.6347   0.3239   0.3305
    10.5198  13.1327  13.4003  13.5566

          k = 0.0833 0.2406-0.1581 (  1192 PWs)   bands (ev):

   -12.9691 -12.9691  -1.0375  -1.0375  -0.9345  -0.9345   0.3272   0.3272
    11.6764  11.6764  13.4558  13.4559

          k = 0.0833 0.3368 0.0000 (  1189 PWs)   bands (ev):

   -12.0404 -11.9671  -3.1259  -3.0987  -0.5676  -0.5550  -0.1767   0.5875
    11.1630  11.3435  11.4245  13.8407

          k = 0.0833 0.3368 0.0790 (  1187 PWs)   bands (ev):

   -12.0299 -11.9780  -3.1218  -3.1026  -0.5659  -0.5569  -0.0748   0.4641
    11.1743  11.3738  11.7893  13.8183

          k = 0.0833 0.3368-0.1581 (  1184 PWs)   bands (ev):

   -12.0041 -12.0041  -3.1121  -3.1121  -0.5615  -0.5615   0.1840   0.1840
    11.2686  11.2686  12.8849  12.8849

          k = 0.0833 0.4330 0.0000 (  1189 PWs)   bands (ev):

   -10.7752 -10.7093  -5.2567  -5.2192  -1.2046  -1.1901   1.2508   1.9180
     8.8924   9.2688  12.9790  13.5577

          k = 0.0833 0.4330 0.0790 (  1189 PWs)   bands (ev):

   -10.7657 -10.7192  -5.2512  -5.2248  -1.2024  -1.1922   1.3413   1.8121
     8.9382   9.2053  13.3227  13.5745

          k = 0.0833 0.4330-0.1581 (  1186 PWs)   bands (ev):

   -10.7426 -10.7426  -5.2380  -5.2380  -1.1973  -1.1973   1.5691   1.5691
     9.0628   9.0628  13.5828  13.5828

          k = 0.0833 0.5292 0.0000 (  1191 PWs)   bands (ev):

    -9.2821  -9.2283  -7.2095  -7.1666  -1.5339  -1.5187   2.6755   3.0995
     7.1307   7.5001  13.3765  13.5105

          k = 0.0833 0.5292 0.0790 (  1184 PWs)   bands (ev):

    -9.2743  -9.2362  -7.2033  -7.1729  -1.5316  -1.5208   2.7380   3.0381
     7.1680   7.4300  13.3959  13.4908

          k = 0.0833 0.5292-0.1581 (  1188 PWs)   bands (ev):

    -9.2554  -9.2554  -7.1881  -7.1881  -1.5262  -1.5262   2.8883   2.8883
     7.2827   7.2827  13.4428  13.4429

          k = 0.1667 0.2887 0.0000 (  1185 PWs)   bands (ev):

   -12.2011 -12.1268  -2.3672  -2.3547  -1.0509  -1.0416  -0.3607   0.4144
    11.1388  11.6528  11.8239  14.8755

          k = 0.1667 0.2887 0.0790 (  1190 PWs)   bands (ev):

   -12.1904 -12.1379  -2.3653  -2.3564  -1.0496  -1.0430  -0.2576   0.2888
    11.5501  11.6775  11.7996  14.0552

          k = 0.1667 0.2887-0.1581 (  1190 PWs)   bands (ev):

   -12.1644 -12.1644  -2.3610  -2.3610  -1.0463  -1.0463   0.0046   0.0046
    11.7374  11.7374  12.6531  12.6531

          k = 0.1667 0.3849 0.0000 (  1191 PWs)   bands (ev):

   -11.0895 -11.0217  -4.1034  -4.0771  -2.1136  -2.0963   0.9271   1.6320
     9.6714   9.9107  12.5929  15.4501

          k = 0.1667 0.3849 0.0790 (  1187 PWs)   bands (ev):

   -11.0797 -11.0318  -4.0995  -4.0810  -2.1110  -2.0988   1.0219   1.5191
     9.7043   9.8742  12.9682  15.1063

          k = 0.1667 0.3849-0.1581 (  1194 PWs)   bands (ev):

   -11.0559 -11.0559  -4.0903  -4.0903  -2.1050  -2.1050   1.2615   1.2615
     9.7875   9.7875  13.9493  13.9493

          k = 0.1667 0.4811 0.0000 (  1179 PWs)   bands (ev):

    -9.7064  -9.6473  -6.0269  -5.9887  -2.6897  -2.6677   2.4210   2.9885
     7.7229   8.0362  14.4137  15.2388

          k = 0.1667 0.4811 0.0790 (  1186 PWs)   bands (ev):

    -9.6978  -9.6561  -6.0214  -5.9945  -2.6866  -2.6711   2.4995   2.9005
     7.7622   7.9845  14.7013  15.2553

          k = 0.1667 0.4811-0.1581 (  1182 PWs)   bands (ev):

    -9.6771  -9.6771  -6.0079  -6.0079  -2.6788  -2.6788   2.6952   2.6952
     7.8677   7.8677  15.2310  15.2310

          k = 0.1667 0.5774 0.0000 (  1176 PWs)   bands (ev):

    -8.4386  -8.4103  -7.4726  -7.4519  -2.8744  -2.8512   3.4494   3.7234
     6.7259   6.9175  15.1395  15.3630

          k = 0.1667 0.5774 0.0790 (  1174 PWs)   bands (ev):

    -8.4342  -8.4142  -7.4699  -7.4552  -2.8711  -2.8545   3.4942   3.6888
     6.7372   6.8745  15.1666  15.3233

          k = 0.1667 0.5774-0.1581 (  1176 PWs)   bands (ev):

    -8.4241  -8.4241  -7.4629  -7.4629  -2.8629  -2.8629   3.5963   3.5963
     6.7901   6.7901  15.2370  15.2370

          k = 0.2500 0.4330 0.0000 (  1183 PWs)   bands (ev):

    -9.8558  -9.7955  -5.1241  -5.1054  -3.6108  -3.5963   2.3164   2.9278
     8.0644   8.2907  14.2156  16.1166

          k = 0.2500 0.4330 0.0790 (  1183 PWs)   bands (ev):

    -9.8470  -9.8045  -5.1214  -5.1081  -3.6088  -3.5985   2.3996   2.8316
     8.0975   8.2573  14.4809  15.7842

          k = 0.2500 0.4330-0.1581 (  1192 PWs)   bands (ev):

    -9.8259  -9.8259  -5.1147  -5.1147  -3.6038  -3.6038   2.6090   2.6090
     8.1770   8.1770  15.1156  15.1156

          k = 0.2500 0.5292 0.0000 (  1169 PWs)   bands (ev):

    -8.4205  -8.3723  -6.5613  -6.5291  -4.3227  -4.2980   3.7912   4.2140
     6.5569   6.7701  16.1097  16.1548

          k = 0.2500 0.5292 0.0790 (  1171 PWs)   bands (ev):

    -8.4136  -8.3794  -6.5565  -6.5338  -4.3192  -4.3017   3.8525   4.1521
     6.5833   6.7345  15.8270  15.9383

          k = 0.2500 0.5292-0.1581 (  1180 PWs)   bands (ev):

    -8.3965  -8.3965  -6.5453  -6.5453  -4.3106  -4.3106   4.0020   4.0020
     6.6537   6.6537  15.7236  15.7236

          k = 0.3333 0.5774 0.0000 (  1173 PWs)   bands (ev):

    -7.1960  -7.1711  -7.1711  -7.1475  -5.2315  -5.2315   5.1083   5.3572
     5.3572   5.6280  15.9309  15.9309

          k = 0.3333 0.5774 0.0790 (  1173 PWs)   bands (ev):

    -7.1889  -7.1710  -7.1710  -7.1547  -5.2316  -5.2316   5.1800   5.3599
     5.3599   5.5468  15.6853  15.6853

          k = 0.3333 0.5774-0.1581 (  1182 PWs)   bands (ev):

    -7.1719  -7.1719  -7.1710  -7.1710  -5.2317  -5.2317   5.3583   5.3583
     5.3621   5.3621  15.5038  15.5038

     the Fermi energy is     5.3607 ev

!    total energy              =     -72.49014220 Ry
     total all-electron energy =      -303.606253 Ry
     estimated scf accuracy    <       0.00000004 Ry
     smearing contrib. (-TS)   =      -0.00052278 Ry
     internal energy E=F+TS    =     -72.48961942 Ry

     The total energy is F=E-TS. E is the sum of the following terms:
     one-electron contribution =     -22.93501564 Ry
     hartree contribution      =      18.85518496 Ry
     xc contribution           =     -18.30992148 Ry
     ewald contribution        =     -26.51210758 Ry
     Dispersion Correction     =      -0.02703817 Ry
     one-center paw contrib.   =     -23.56072151 Ry

     convergence has been achieved in   6 iterations

     Forces acting on atoms (cartesian axes, Ry/au):

     atom    1 type  1   force =    -0.00000000   -0.00000000    0.00000000
     atom    2 type  1   force =     0.00000000    0.00000000    0.00000000
     atom    3 type  1   force =     0.00000000    0.00000000   -0.00000000
     atom    4 type  1   force =    -0.00000000   -0.00000000    0.00000000

     Total force =     0.000000     Total SCF correction =     0.000000


     Computing stress (Cartesian axis) and pressure

          total   stress  (Ry/bohr**3)                   (kbar)     P=      -41.50
  -0.00030758   0.00000000   0.00000000          -45.25        0.00        0.00
   0.00000000  -0.00030758   0.00000000            0.00      -45.25        0.00
   0.00000000   0.00000000  -0.00023117            0.00        0.00      -34.01


     BFGS Geometry Optimization
     Energy error            =      0.0E+00 Ry
     Gradient error          =      2.1E-25 Ry/Bohr
     Cell gradient error     =      4.5E+01 kbar

     number of scf cycles    =   1
     number of bfgs steps    =   0

     enthalpy           new  =     -72.4901422002 Ry

     new trust radius        =       0.0256236349 bohr
ibrav =      4
 celldm(1) =      4.62665295
 celldm(3) =      3.16869526
Input lattice vectors:
     0.99231058     0.00000000     0.00000000
    -0.49615529     0.85936617     0.00000000
     0.00000000     0.00000000     3.14432982
New lattice vectors in INITIAL alat:
     0.99231058     0.00000000     0.00000000
    -0.49615529     0.85936617     0.00000000
     0.00000000     0.00000000     3.14432982
New lattice vectors in NEW alat (for information only):
     1.00000000     0.00000000     0.00000000
    -0.50000000     0.86602540     0.00000000
     0.00000000     0.00000000     3.16869526
Discrepancy in bohr =     0.000000    0.000000    0.000000
     new conv_thr            =       0.0000001000 Ry

     new unit-cell volume =    271.77649 a.u.^3 (    40.27312 Ang^3 )
     density =      1.98095 g/cm^3

CELL_PARAMETERS (alat=  4.66250493)
   0.992310575   0.000000000   0.000000000
  -0.496155288   0.859366167   0.000000000
   0.000000000   0.000000000   3.144329818

ATOMIC_POSITIONS (crystal)
C               -0.0000000000       -0.0000000000        0.2500000000
C                0.0000000000        0.0000000000        0.7500000000
C                0.3333333330        0.6666666660        0.2500000000
C                0.6666666660        0.3333333330        0.7500000000



     Writing config-only to output data dir ./temp/graphite.save/ :
     XML data file
     NEW-OLD atomic charge density approx. for the potential

     Check: negative core charge=   -0.000011

     total cpu time spent up to now is        6.3 secs

     Self-consistent Calculation

     iteration #  1     ecut=    40.00 Ry     beta= 0.70
     Davidson diagonalization with overlap
     ethr =  1.00E-06,  avg # of iterations =  3.8

     total cpu time spent up to now is        7.3 secs

     total energy              =     -72.49055022 Ry
     estimated scf accuracy    <       0.00034510 Ry

     iteration #  2     ecut=    40.00 Ry     beta= 0.70
     Davidson diagonalization with overlap
     ethr =  2.16E-06,  avg # of iterations =  2.9

     total cpu time spent up to now is        8.0 secs

     total energy              =     -72.49061310 Ry
     estimated scf accuracy    <       0.00000191 Ry

     iteration #  3     ecut=    40.00 Ry     beta= 0.70
     Davidson diagonalization with overlap
     ethr =  1.19E-08,  avg # of iterations =  2.4

     total cpu time spent up to now is        8.7 secs

     total energy              =     -72.49061344 Ry
     estimated scf accuracy    <       0.00000011 Ry

     iteration #  4     ecut=    40.00 Ry     beta= 0.70
     Davidson diagonalization with overlap
     ethr =  7.01E-10,  avg # of iterations =  2.1

     total cpu time spent up to now is        9.4 secs

     End of self-consistent calculation

          k = 0.0000 0.0000 0.0000 (  1193 PWs)   bands (ev):

   -14.1248 -14.0352  -2.6482  -1.7604   2.5780   2.5780   2.5823   2.5823
     8.7683  13.0653  14.0168  14.0168

          k = 0.0000 0.0000 0.0795 (  1212 PWs)   bands (ev):

   -14.1119 -14.0486  -2.5314  -1.9059   2.5784   2.5784   2.5811   2.5811
     9.2288  12.0882  14.0187  14.0194

          k = 0.0000 0.0000-0.1590 (  1194 PWs)   bands (ev):

   -14.0804 -14.0804  -2.2325  -2.2325   2.5797   2.5797   2.5797   2.5797
    10.4672  10.4672  14.0234  14.0234

          k = 0.0000 0.0970 0.0000 (  1206 PWs)   bands (ev):

   -13.9581 -13.8696  -2.4452  -1.5641   1.9203   1.9269   2.2276   2.2333
     8.9811  13.2547  14.0706  14.1043

          k = 0.0000 0.0970 0.0795 (  1197 PWs)   bands (ev):

   -13.9453 -13.8828  -2.3292  -1.7084   1.9211   1.9261   2.2288   2.2326
     9.4390  12.2808  14.0838  14.1017

          k = 0.0000 0.0970-0.1590 (  1182 PWs)   bands (ev):

   -13.9142 -13.9142  -2.0325  -2.0325   1.9238   1.9238   2.2309   2.2309
    10.6702  10.6702  14.0943  14.0944

          k = 0.0000 0.1939 0.0000 (  1182 PWs)   bands (ev):

   -13.4597 -13.3744  -1.8407  -0.9810   0.2613   0.2762   1.4116   1.4194
     9.6208  13.7956  14.0097  14.0844

          k = 0.0000 0.1939 0.0795 (  1184 PWs)   bands (ev):

   -13.4474 -13.3871  -1.7271  -1.1214   0.2635   0.2736   1.4124   1.4183
    10.0700  12.8443  14.0449  14.0798

          k = 0.0000 0.1939-0.1590 (  1194 PWs)   bands (ev):

   -13.4175 -13.4175  -1.4375  -1.4375   0.2682   0.2682   1.4155   1.4155
    11.2761  11.2761  14.0633  14.0633

          k = 0.0000 0.2909 0.0000 (  1186 PWs)   bands (ev):

   -12.6354 -12.5553  -1.8677  -1.8438  -0.8519  -0.0323   0.5074   0.5177
    10.6847  12.8380  13.0634  13.7375

          k = 0.0000 0.2909 0.0795 (  1192 PWs)   bands (ev):

   -12.6239 -12.5672  -1.8645  -1.8474  -0.7432  -0.1655   0.5088   0.5163
    11.1096  12.8632  12.9968  13.6672

          k = 0.0000 0.2909-0.1590 (  1174 PWs)   bands (ev):

   -12.5957 -12.5957  -1.8560  -1.8560  -0.4663  -0.4663   0.5130   0.5130
    12.2052  12.2053  13.0608  13.0611

          k = 0.0000 0.3879 0.0000 (  1192 PWs)   bands (ev):

   -11.4967 -11.4236  -4.1069  -4.0723  -0.2440  -0.2325   0.4768   1.2257
    10.3955  10.7674  12.1562  13.4158

          k = 0.0000 0.3879 0.0795 (  1184 PWs)   bands (ev):

   -11.4862 -11.4345  -4.1017  -4.0772  -0.2422  -0.2344   0.5771   1.1053
    10.4341  10.6998  12.5796  13.4233

          k = 0.0000 0.3879-0.1590 (  1182 PWs)   bands (ev):

   -11.4605 -11.4605  -4.0894  -4.0894  -0.2382  -0.2382   0.8314   0.8314
    10.5542  10.5542  13.3644  13.3644

          k = 0.0000 0.4849 0.0000 (  1196 PWs)   bands (ev):

   -10.0708 -10.0066  -6.2468  -6.2028  -0.7276  -0.7166   2.0044   2.6012
     8.1632   8.6115  13.1655  13.2757

          k = 0.0000 0.4849 0.0795 (  1193 PWs)   bands (ev):

   -10.0615 -10.0162  -6.2404  -6.2091  -0.7261  -0.7180   2.0871   2.5086
     8.2142   8.5316  13.1847  13.2639

          k = 0.0000 0.4849-0.1590 (  1188 PWs)   bands (ev):

   -10.0390 -10.0390  -6.2248  -6.2248  -0.7219  -0.7219   2.2929   2.2929
     8.3590   8.3590  13.2265  13.2265

          k = 0.0000-0.5818 0.0000 (  1188 PWs)   bands (ev):

    -8.7229  -8.6920  -7.8140  -7.7898  -0.8937  -0.8826   3.0156   3.3020
     7.0853   7.4527  13.0871  13.2137

          k = 0.0000-0.5818 0.0795 (  1190 PWs)   bands (ev):

    -8.7181  -8.6963  -7.8109  -7.7938  -0.8920  -0.8842   3.0618   3.2653
     7.1150   7.3752  13.1053  13.1948

          k = 0.0000-0.5818-0.1590 (  1204 PWs)   bands (ev):

    -8.7070  -8.7070  -7.8028  -7.8028  -0.8882  -0.8882   3.1680   3.1680
     7.2214   7.2214  13.1495  13.1495

          k = 0.0840 0.1455 0.0000 (  1195 PWs)   bands (ev):

   -13.6255 -13.5392  -2.0413  -1.1743   0.8795   0.8864   1.5289   1.5340
     9.4081  13.6266  14.3444  14.4061

          k = 0.0840 0.1455 0.0795 (  1192 PWs)   bands (ev):

   -13.6131 -13.5521  -1.9269  -1.3160   0.8805   0.8854   1.5298   1.5334
     9.8605  12.6642  14.3728  14.4014

          k = 0.0840 0.1455-0.1590 (  1192 PWs)   bands (ev):

   -13.5828 -13.5828  -1.6349  -1.6349   0.8829   0.8829   1.5314   1.5314
    11.0765  11.0765  14.3897  14.3898

          k = 0.0840 0.2424 0.0000 (  1191 PWs)   bands (ev):

   -12.9642 -12.8821  -1.2437  -0.8526  -0.8367  -0.4070   0.5023   0.5120
    10.2623  13.7584  13.8872  14.4047

          k = 0.0840 0.2424 0.0795 (  1192 PWs)   bands (ev):

   -12.9524 -12.8943  -1.1329  -0.8503  -0.8390  -0.5433   0.5036   0.5104
    10.7015  13.3749  13.7934  13.9436

          k = 0.0840 0.2424-0.1590 (  1192 PWs)   bands (ev):

   -12.9236 -12.9236  -0.8527  -0.8527  -0.8426  -0.8426   0.5070   0.5070
    11.8783  11.8783  13.8521  13.8521

          k = 0.0840 0.3394 0.0000 (  1189 PWs)   bands (ev):

   -11.9827 -11.9066  -2.9604  -2.9325  -0.4042  -0.3912  -0.0795   0.7041
    11.4957  11.5364  11.7671  14.2702

          k = 0.0840 0.3394 0.0795 (  1187 PWs)   bands (ev):

   -11.9718 -11.9180  -2.9563  -2.9365  -0.4024  -0.3931   0.0249   0.5773
    11.4984  11.7110  12.0033  14.2202

          k = 0.0840 0.3394-0.1590 (  1184 PWs)   bands (ev):

   -11.9450 -11.9450  -2.9464  -2.9464  -0.3978  -0.3978   0.2901   0.2901
    11.6018  11.6018  13.1143  13.1143

          k = 0.0840 0.4364 0.0000 (  1189 PWs)   bands (ev):

   -10.6984 -10.6301  -5.1215  -5.0828  -1.0523  -1.0375   1.3773   2.0625
     9.1671   9.5578  13.2028  13.9998

          k = 0.0840 0.4364 0.0795 (  1189 PWs)   bands (ev):

   -10.6885 -10.6403  -5.1158  -5.0885  -1.0501  -1.0396   1.4701   1.9536
     9.2143   9.4916  13.5763  14.0145

          k = 0.0840 0.4364-0.1590 (  1186 PWs)   bands (ev):

   -10.6645 -10.6645  -5.1022  -5.1022  -1.0448  -1.0448   1.7039   1.7039
     9.3434   9.3434  14.0135  14.0135

          k = 0.0840 0.5333 0.0000 (  1191 PWs)   bands (ev):

    -9.1745  -9.1182  -7.1115  -7.0665  -1.3873  -1.3718   2.8350   3.2712
     7.3606   7.7444  13.8242  13.9644

          k = 0.0840 0.5333 0.0795 (  1184 PWs)   bands (ev):

    -9.1663  -9.1265  -7.1050  -7.0731  -1.3850  -1.3740   2.8992   3.2080
     7.3991   7.6713  13.8446  13.9438

          k = 0.0840 0.5333-0.1590 (  1188 PWs)   bands (ev):

    -9.1466  -9.1466  -7.0891  -7.0891  -1.3795  -1.3795   3.0539   3.0539
     7.5180   7.5180  13.8938  13.8938

          k = 0.1680 0.2909 0.0000 (  1185 PWs)   bands (ev):

   -12.1457 -12.0686  -2.1820  -2.1692  -0.9011  -0.8916  -0.2673   0.5273
    11.3289  12.0036  12.1806  15.1370

          k = 0.1680 0.2909 0.0795 (  1190 PWs)   bands (ev):

   -12.1347 -12.0802  -2.1801  -2.1710  -0.8998  -0.8930  -0.1617   0.3985
    11.7480  12.0291  12.1550  14.3002

          k = 0.1680 0.2909-0.1590 (  1190 PWs)   bands (ev):

   -12.1076 -12.1076  -2.1756  -2.1756  -0.8964  -0.8964   0.1070   0.1070
    12.0910  12.0910  12.8708  12.8708

          k = 0.1680 0.3879 0.0000 (  1191 PWs)   bands (ev):

   -11.0178 -10.9476  -3.9423  -3.9151  -1.9793  -1.9613   1.0464   1.7700
     9.9736  10.2214  12.8053  15.8907

          k = 0.1680 0.3879 0.0795 (  1187 PWs)   bands (ev):

   -11.0077 -10.9580  -3.9383  -3.9191  -1.9766  -1.9639   1.1436   1.6539
    10.0076  10.1836  13.1884  15.3856

          k = 0.1680 0.3879-0.1590 (  1194 PWs)   bands (ev):

   -10.9830 -10.9830  -3.9287  -3.9287  -1.9704  -1.9704   1.3894   1.3894
    10.0937  10.0937  14.1903  14.1903

          k = 0.1680 0.4849 0.0000 (  1179 PWs)   bands (ev):

    -9.6119  -9.5506  -5.8994  -5.8596  -2.5602  -2.5375   2.5723   3.1559
     7.9768   8.3020  14.6572  15.6986

          k = 0.1680 0.4849 0.0795 (  1186 PWs)   bands (ev):

    -9.6030  -9.5597  -5.8936  -5.8656  -2.5570  -2.5410   2.6529   3.0653
     8.0176   8.2483  14.9547  15.7111

          k = 0.1680 0.4849-0.1590 (  1182 PWs)   bands (ev):

    -9.5815  -9.5815  -5.8796  -5.8796  -2.5489  -2.5489   2.8541   2.8541
     8.1269   8.1269  15.5944  15.5944

          k = 0.1680 0.5818 0.0000 (  1176 PWs)   bands (ev):

    -8.2997  -8.2704  -7.3922  -7.3706  -2.7465  -2.7226   3.6265   3.9075
     6.9542   7.1549  15.6023  15.8405

          k = 0.1680 0.5818 0.0795 (  1174 PWs)   bands (ev):

    -8.2952  -8.2744  -7.3894  -7.3741  -2.7431  -2.7261   3.6725   3.8722
     6.9661   7.1098  15.6301  15.7962

          k = 0.1680 0.5818-0.1590 (  1176 PWs)   bands (ev):

    -8.2846  -8.2846  -7.3822  -7.3822  -2.7346  -2.7346   3.7774   3.7774
     7.0215   7.0215  15.7028  15.7028

          k = 0.2519 0.4364 0.0000 (  1183 PWs)   bands (ev):

    -9.7649  -9.7024  -4.9611  -4.9418  -3.5132  -3.4983   2.4646   3.0931
     8.3340   8.5670  14.4542  16.3961

          k = 0.2519 0.4364 0.0795 (  1183 PWs)   bands (ev):

    -9.7558  -9.7117  -4.9582  -4.9445  -3.5111  -3.5006   2.5500   2.9940
     8.3681   8.5327  14.7258  16.0592

          k = 0.2519 0.4364-0.1590 (  1192 PWs)   bands (ev):

    -9.7339  -9.7339  -4.9514  -4.9514  -3.5060  -3.5060   2.7652   2.7652
     8.4501   8.4501  15.3756  15.3756

          k = 0.2519 0.5333 0.0000 (  1169 PWs)   bands (ev):

    -8.3007  -8.2503  -6.4303  -6.3961  -4.2318  -4.2056   3.9722   4.4074
     6.7930   7.0131  16.3852  16.4241

          k = 0.2519 0.5333 0.0795 (  1171 PWs)   bands (ev):

    -8.2935  -8.2578  -6.4253  -6.4011  -4.2281  -4.2095   4.0353   4.3437
     6.8202   6.9762  16.0928  16.2072

          k = 0.2519 0.5333-0.1590 (  1180 PWs)   bands (ev):

    -8.2757  -8.2757  -6.4134  -6.4134  -4.2189  -4.2189   4.1891   4.1891
     6.8930   6.8930  15.9889  15.9889

          k = 0.3359 0.5818 0.0000 (  1173 PWs)   bands (ev):

    -7.0487  -7.0230  -7.0230  -6.9985  -5.1866  -5.1866   5.3170   5.5723
     5.5723   5.8508  16.1829  16.1829

          k = 0.3359 0.5818 0.0795 (  1173 PWs)   bands (ev):

    -7.0413  -7.0229  -7.0229  -7.0060  -5.1868  -5.1868   5.3905   5.5751
     5.5751   5.7673  15.9373  15.9373

          k = 0.3359 0.5818-0.1590 (  1182 PWs)   bands (ev):

    -7.0238  -7.0238  -7.0229  -7.0229  -5.1869  -5.1869   5.5736   5.5736
     5.5775   5.5775  15.7543  15.7543

     the Fermi energy is     5.5760 ev

!    total energy              =     -72.49061346 Ry
     total all-electron energy =      -303.606725 Ry
     estimated scf accuracy    <       0.00000002 Ry
     smearing contrib. (-TS)   =      -0.00051878 Ry
     internal energy E=F+TS    =     -72.49009468 Ry

     The total energy is F=E-TS. E is the sum of the following terms:
     one-electron contribution =     -22.82413563 Ry
     hartree contribution      =      18.92212945 Ry
     xc contribution           =     -18.38129115 Ry
     ewald contribution        =     -26.61570417 Ry
     Dispersion Correction     =      -0.02749729 Ry
     one-center paw contrib.   =     -23.56359588 Ry

     convergence has been achieved in   4 iterations

     Forces acting on atoms (cartesian axes, Ry/au):

     atom    1 type  1   force =    -0.00000000   -0.00000000    0.00000000
     atom    2 type  1   force =     0.00000000    0.00000000    0.00000000
     atom    3 type  1   force =    -0.00000000   -0.00000000    0.00000000
     atom    4 type  1   force =     0.00000000    0.00000000    0.00000000

     Total force =     0.000000     Total SCF correction =     0.000000


     Computing stress (Cartesian axis) and pressure

          total   stress  (Ry/bohr**3)                   (kbar)     P=       14.93
   0.00026811  -0.00000000  -0.00000000           39.44       -0.00       -0.00
  -0.00000000   0.00026811  -0.00000000           -0.00       39.44       -0.00
   0.00000000   0.00000000  -0.00023171            0.00        0.00      -34.09

     Energy error            =      4.7E-04 Ry
     Gradient error          =      1.4E-25 Ry/Bohr
     Cell gradient error     =      3.9E+01 kbar

     number of scf cycles    =   2
     number of bfgs steps    =   1

     enthalpy           old  =     -72.4901422002 Ry
     enthalpy           new  =     -72.4906134575 Ry

     CASE: enthalpy          _new < enthalpy          _old

     new trust radius        =       0.0183328834 bohr
ibrav =      4
 celldm(1) =      4.63792411
 celldm(3) =      3.14341870
Input lattice vectors:
     0.99472798    -0.00000000     0.00000000
    -0.49736399     0.86145970     0.00000000
    -0.00000000    -0.00000000     3.12684654
New lattice vectors in INITIAL alat:
     0.99472798     0.00000000     0.00000000
    -0.49736399     0.86145970     0.00000000
     0.00000000     0.00000000     3.12684654
New lattice vectors in NEW alat (for information only):
     1.00000000     0.00000000     0.00000000
    -0.50000000     0.86602540     0.00000000
     0.00000000     0.00000000     3.14341870
Discrepancy in bohr =     0.000000    0.000000    0.000000
     new conv_thr            =       0.0000000010 Ry

     new unit-cell volume =    271.58375 a.u.^3 (    40.24456 Ang^3 )
     density =      1.98235 g/cm^3

CELL_PARAMETERS (alat=  4.66250493)
   0.994727980   0.000000000   0.000000000
  -0.497363990   0.861459700   0.000000000
   0.000000000   0.000000000   3.126846538

ATOMIC_POSITIONS (crystal)
C               -0.0000000000       -0.0000000000        0.2500000000
C                0.0000000000        0.0000000000        0.7500000000
C                0.3333333330        0.6666666660        0.2500000000
C                0.6666666660        0.3333333330        0.7500000000



     Writing config-only to output data dir ./temp/graphite.save/ :
     XML data file
     NEW-OLD atomic charge density approx. for the potential

     Check: negative core charge=   -0.000011

     total cpu time spent up to now is       10.2 secs

     Self-consistent Calculation

     iteration #  1     ecut=    40.00 Ry     beta= 0.70
     Davidson diagonalization with overlap
     ethr =  1.00E-06,  avg # of iterations =  3.3

     total cpu time spent up to now is       11.0 secs

     total energy              =     -72.49119353 Ry
     estimated scf accuracy    <       0.00002669 Ry

     iteration #  2     ecut=    40.00 Ry     beta= 0.70
     Davidson diagonalization with overlap
     ethr =  1.67E-07,  avg # of iterations =  2.0

     total cpu time spent up to now is       11.6 secs

     total energy              =     -72.49119734 Ry
     estimated scf accuracy    <       0.00000065 Ry

     iteration #  3     ecut=    40.00 Ry     beta= 0.70
     Davidson diagonalization with overlap
     ethr =  4.09E-09,  avg # of iterations =  1.9

     total cpu time spent up to now is       12.2 secs

     total energy              =     -72.49119742 Ry
     estimated scf accuracy    <       0.00000005 Ry

     iteration #  4     ecut=    40.00 Ry     beta= 0.70
     Davidson diagonalization with overlap
     ethr =  3.19E-10,  avg # of iterations =  2.1

     total cpu time spent up to now is       12.8 secs

     total energy              =     -72.49119742 Ry
     estimated scf accuracy    <          4.1E-09 Ry

     iteration #  5     ecut=    40.00 Ry     beta= 0.70
     Davidson diagonalization with overlap
     ethr =  2.55E-11,  avg # of iterations =  2.0

     total cpu time spent up to now is       13.4 secs

     End of self-consistent calculation

          k = 0.0000 0.0000 0.0000 (  1193 PWs)   bands (ev):

   -14.0647 -13.9699  -2.6109  -1.6885   2.5786   2.5786   2.5832   2.5832
     8.8153  13.1764  13.9716  13.9716

          k = 0.0000 0.0000 0.0800 (  1212 PWs)   bands (ev):

   -14.0511 -13.9841  -2.4899  -1.8403   2.5790   2.5790   2.5820   2.5820
     9.2850  12.1891  13.9737  13.9744

          k = 0.0000 0.0000-0.1599 (  1194 PWs)   bands (ev):

   -14.0178 -14.0178  -2.1799  -2.1799   2.5804   2.5804   2.5804   2.5804
    10.5451  10.5451  13.9787  13.9787

          k = 0.0000 0.0967 0.0000 (  1206 PWs)   bands (ev):

   -13.8986 -13.8050  -2.4090  -1.4936   1.9226   1.9297   2.2308   2.2369
     9.0268  13.3634  14.0246  14.0585

          k = 0.0000 0.0967 0.0800 (  1197 PWs)   bands (ev):

   -13.8851 -13.8191  -2.2887  -1.6440   1.9235   1.9289   2.2320   2.2362
     9.4938  12.3795  14.0377  14.0558

          k = 0.0000 0.0967-0.1599 (  1182 PWs)   bands (ev):

   -13.8523 -13.8523  -1.9811  -1.9811   1.9264   1.9264   2.2343   2.2343
    10.7465  10.7465  14.0481  14.0481

          k = 0.0000 0.1935 0.0000 (  1182 PWs)   bands (ev):

   -13.4023 -13.3120  -1.8077  -0.9145   0.2688   0.2848   1.4205   1.4290
     9.6627  13.8948  13.9571  14.0324

          k = 0.0000 0.1935 0.0800 (  1184 PWs)   bands (ev):

   -13.3893 -13.3255  -1.6900  -1.0608   0.2711   0.2820   1.4214   1.4278
    10.1205  12.9343  13.9932  14.0278

          k = 0.0000 0.1935-0.1599 (  1194 PWs)   bands (ev):

   -13.3577 -13.3577  -1.3896  -1.3896   0.2762   0.2762   1.4247   1.4247
    11.3471  11.3471  14.0104  14.0104

          k = 0.0000 0.2902 0.0000 (  1186 PWs)   bands (ev):

   -12.5814 -12.4966  -1.8526  -1.8269  -0.8242   0.0276   0.5223   0.5335
    10.7198  12.7890  13.0272  13.6755

          k = 0.0000 0.2902 0.0800 (  1192 PWs)   bands (ev):

   -12.5692 -12.5093  -1.8491  -1.8308  -0.7115  -0.1113   0.5238   0.5319
    11.1521  12.8221  12.9613  13.6299

          k = 0.0000 0.2902-0.1599 (  1174 PWs)   bands (ev):

   -12.5394 -12.5394  -1.8400  -1.8400  -0.4241  -0.4241   0.5283   0.5283
    12.2550  12.2550  13.0247  13.0248

          k = 0.0000 0.3869 0.0000 (  1192 PWs)   bands (ev):

   -11.4476 -11.3701  -4.0829  -4.0460  -0.2243  -0.2119   0.4974   1.2759
    10.3625  10.7498  12.1806  13.3483

          k = 0.0000 0.3869 0.0800 (  1184 PWs)   bands (ev):

   -11.4364 -11.3817  -4.0774  -4.0512  -0.2224  -0.2140   0.6015   1.1504
    10.4030  10.6797  12.6086  13.3578

          k = 0.0000 0.3869-0.1599 (  1182 PWs)   bands (ev):

   -11.4092 -11.4092  -4.0643  -4.0643  -0.2181  -0.2181   0.8654   0.8654
    10.5284  10.5284  13.3212  13.3212

          k = 0.0000 0.4837 0.0000 (  1196 PWs)   bands (ev):

   -10.0287  -9.9606  -6.2131  -6.1663  -0.7049  -0.6930   2.0175   2.6380
     8.1472   8.6119  13.0954  13.2133

          k = 0.0000 0.4837 0.0800 (  1193 PWs)   bands (ev):

   -10.0189  -9.9707  -6.2063  -6.1731  -0.7033  -0.6945   2.1033   2.5416
     8.1997   8.5288  13.1151  13.1994

          k = 0.0000 0.4837-0.1599 (  1188 PWs)   bands (ev):

    -9.9950  -9.9950  -6.1897  -6.1897  -0.6988  -0.6988   2.3173   2.3173
     8.3494   8.3494  13.1591  13.1591

          k = 0.0000-0.5804 0.0000 (  1188 PWs)   bands (ev):

    -8.6951  -8.6623  -7.7634  -7.7377  -0.8700  -0.8580   3.0260   3.3251
     7.0828   7.4608  13.0149  13.1481

          k = 0.0000-0.5804 0.0800 (  1190 PWs)   bands (ev):

    -8.6900  -8.6668  -7.7601  -7.7420  -0.8682  -0.8597   3.0745   3.2871
     7.1123   7.3802  13.0341  13.1283

          k = 0.0000-0.5804-0.1599 (  1204 PWs)   bands (ev):

    -8.6782  -8.6782  -7.7516  -7.7516  -0.8640  -0.8640   3.1857   3.1857
     7.2209   7.2209  13.0807  13.0807

          k = 0.0838 0.1451 0.0000 (  1195 PWs)   bands (ev):

   -13.5675 -13.4761  -2.0073  -1.1064   0.8845   0.8920   1.5373   1.5427
     9.4512  13.7306  14.2978  14.3587

          k = 0.0838 0.1451 0.0800 (  1192 PWs)   bands (ev):

   -13.5543 -13.4898  -1.8887  -1.2542   0.8856   0.8909   1.5382   1.5421
     9.9125  12.7582  14.3259  14.3538

          k = 0.0838 0.1451-0.1599 (  1192 PWs)   bands (ev):

   -13.5223 -13.5223  -1.5857  -1.5857   0.8882   0.8882   1.5400   1.5400
    11.1493  11.1493  14.3420  14.3420

          k = 0.0838 0.2418 0.0000 (  1191 PWs)   bands (ev):

   -12.9089 -12.8219  -1.2139  -0.8421  -0.8249  -0.3444   0.5171   0.5276
    10.3001  13.7029  13.8478  14.4851

          k = 0.0838 0.2418 0.0800 (  1192 PWs)   bands (ev):

   -12.8964 -12.8349  -1.0991  -0.8396  -0.8274  -0.4865   0.5185   0.5258
    10.7476  13.4463  13.7375  13.9023

          k = 0.0838 0.2418-0.1599 (  1192 PWs)   bands (ev):

   -12.8659 -12.8659  -0.8341  -0.8341  -0.8056  -0.8056   0.5222   0.5222
    11.9436  11.9436  13.7980  13.7980

          k = 0.0838 0.3386 0.0000 (  1189 PWs)   bands (ev):

   -11.9315 -11.8509  -2.9417  -2.9118  -0.3844  -0.3704  -0.0560   0.7584
    11.4547  11.5660  11.7384  14.2040

          k = 0.0838 0.3386 0.0800 (  1187 PWs)   bands (ev):

   -11.9199 -11.8629  -2.9373  -2.9161  -0.3824  -0.3725   0.0523   0.6264
    11.4637  11.6823  12.0339  14.1732

          k = 0.0838 0.3386-0.1599 (  1184 PWs)   bands (ev):

   -11.8916 -11.8916  -2.9267  -2.9267  -0.3775  -0.3775   0.3276   0.3276
    11.5683  11.5683  13.1640  13.1640

          k = 0.0838 0.4353 0.0000 (  1189 PWs)   bands (ev):

   -10.6529 -10.5805  -5.0936  -5.0523  -1.0291  -1.0130   1.3932   2.1056
     9.1424   9.5485  13.2191  13.9286

          k = 0.0838 0.4353 0.0800 (  1189 PWs)   bands (ev):

   -10.6425 -10.5913  -5.0875  -5.0585  -1.0267  -1.0154   1.4895   1.9922
     9.1914   9.4796  13.5903  13.9454

          k = 0.0838 0.4353-0.1599 (  1186 PWs)   bands (ev):

   -10.6171 -10.6171  -5.0731  -5.0731  -1.0210  -1.0210   1.7324   1.7324
     9.3255   9.3255  13.9518  13.9518

          k = 0.0838 0.5320 0.0000 (  1191 PWs)   bands (ev):

    -9.1383  -9.0788  -7.0721  -7.0244  -1.3622  -1.3455   2.8448   3.2987
     7.3528   7.7492  13.7503  13.8973

          k = 0.0838 0.5320 0.0800 (  1184 PWs)   bands (ev):

    -9.1297  -9.0875  -7.0651  -7.0314  -1.3597  -1.3479   2.9117   3.2331
     7.3919   7.6730  13.7715  13.8756

          k = 0.0838 0.5320-0.1599 (  1188 PWs)   bands (ev):

    -9.1088  -9.1088  -7.0484  -7.0484  -1.3538  -1.3538   3.0728   3.0728
     7.5142   7.5142  13.8231  13.8231

          k = 0.1675 0.2902 0.0000 (  1185 PWs)   bands (ev):

   -12.0938 -12.0121  -2.1690  -2.1552  -0.8768  -0.8666  -0.2427   0.5831
    11.3599  11.9588  12.1443  15.2141

          k = 0.1675 0.2902 0.0800 (  1190 PWs)   bands (ev):

   -12.0821 -12.0244  -2.1669  -2.1572  -0.8754  -0.8681  -0.1332   0.4488
    11.7865  11.9856  12.1177  14.3708

          k = 0.1675 0.2902-0.1599 (  1190 PWs)   bands (ev):

   -12.0535 -12.0535  -2.1622  -2.1622  -0.8717  -0.8717   0.1457   0.1457
    12.0504  12.0504  12.9268  12.9268

          k = 0.1675 0.3869 0.0000 (  1191 PWs)   bands (ev):

   -10.9708 -10.8963  -3.9221  -3.8932  -1.9504  -1.9312   1.0639   1.8161
     9.9427  10.2013  12.8265  15.8184

          k = 0.1675 0.3869 0.0800 (  1187 PWs)   bands (ev):

   -10.9601 -10.9074  -3.9179  -3.8974  -1.9476  -1.9340   1.1648   1.6952
     9.9781  10.1619  13.2158  15.4238

          k = 0.1675 0.3869-0.1599 (  1194 PWs)   bands (ev):

   -10.9339 -10.9339  -3.9077  -3.9077  -1.9409  -1.9409   1.4200   1.4200
    10.0681  10.0681  14.2298  14.2298

          k = 0.1675 0.4837 0.0000 (  1179 PWs)   bands (ev):

    -9.5718  -9.5068  -5.8690  -5.8268  -2.5300  -2.5058   2.5822   3.1891
     7.9604   8.2980  14.6643  15.6199

          k = 0.1675 0.4837 0.0800 (  1186 PWs)   bands (ev):

    -9.5624  -9.5165  -5.8629  -5.8331  -2.5266  -2.5095   2.6659   3.0948
     8.0025   8.2422  14.9639  15.6351

          k = 0.1675 0.4837-0.1599 (  1182 PWs)   bands (ev):

    -9.5396  -9.5396  -5.8480  -5.8480  -2.5180  -2.5180   2.8751   2.8751
     8.1159   8.1159  15.5681  15.5681

          k = 0.1675 0.5804 0.0000 (  1176 PWs)   bands (ev):

    -8.2728  -8.2416  -7.3460  -7.3231  -2.7159  -2.6903   3.6334   3.9267
     6.9521   7.1571  15.5221  15.7672

          k = 0.1675 0.5804 0.0800 (  1174 PWs)   bands (ev):

    -8.2679  -8.2459  -7.3430  -7.3269  -2.7122  -2.6940   3.6816   3.8902
     6.9633   7.1103  15.5508  15.7218

          k = 0.1675 0.5804-0.1599 (  1176 PWs)   bands (ev):

    -8.2567  -8.2567  -7.3354  -7.3354  -2.7032  -2.7032   3.7915   3.7915
     7.0192   7.0192  15.6259  15.6259

          k = 0.2513 0.4353 0.0000 (  1183 PWs)   bands (ev):

    -9.7237  -9.6574  -4.9413  -4.9207  -3.4725  -3.4566   2.4746   3.1283
     8.3136   8.5573  14.4634  16.4146

          k = 0.2513 0.4353 0.0800 (  1183 PWs)   bands (ev):

    -9.7141  -9.6673  -4.9383  -4.9236  -3.4703  -3.4590   2.5634   3.0251
     8.3493   8.5214  14.7373  16.0726

          k = 0.2513 0.4353-0.1599 (  1192 PWs)   bands (ev):

    -9.6908  -9.6908  -4.9309  -4.9309  -3.4649  -3.4649   2.7870   2.7870
     8.4350   8.4350  15.3886  15.3886

          k = 0.2513 0.5320 0.0000 (  1169 PWs)   bands (ev):

    -8.2683  -8.2149  -6.4008  -6.3647  -4.1896  -4.1619   3.9752   4.4282
     6.7847   7.0141  16.3763  16.4262

          k = 0.2513 0.5320 0.0800 (  1171 PWs)   bands (ev):

    -8.2606  -8.2228  -6.3955  -6.3700  -4.1856  -4.1660   4.0410   4.3620
     6.8129   6.9755  16.0770  16.1969

          k = 0.2513 0.5320-0.1599 (  1180 PWs)   bands (ev):

    -8.2417  -8.2417  -6.3829  -6.3829  -4.1759  -4.1759   4.2013   4.2013
     6.8886   6.8886  15.9704  15.9704

          k = 0.3351 0.5804 0.0000 (  1173 PWs)   bands (ev):

    -7.0252  -6.9977  -6.9977  -6.9718  -5.1285  -5.1285   5.3086   5.5753
     5.5753   5.8664  16.1827  16.1827

          k = 0.3351 0.5804 0.0800 (  1173 PWs)   bands (ev):

    -7.0174  -6.9976  -6.9976  -6.9797  -5.1286  -5.1286   5.3852   5.5784
     5.5784   5.7790  15.9248  15.9248

          k = 0.3351 0.5804-0.1599 (  1182 PWs)   bands (ev):

    -6.9987  -6.9987  -6.9975  -6.9975  -5.1289  -5.1289   5.5765   5.5765
     5.5811   5.5811  15.7350  15.7350

     the Fermi energy is     5.5792 ev

!    total energy              =     -72.49119742 Ry
     total all-electron energy =      -303.607309 Ry
     estimated scf accuracy    <          5.2E-11 Ry
     smearing contrib. (-TS)   =      -0.00051204 Ry
     internal energy E=F+TS    =     -72.49068538 Ry

     The total energy is F=E-TS. E is the sum of the following terms:
     one-electron contribution =     -22.16477644 Ry
     hartree contribution      =      18.59612159 Ry
     xc contribution           =     -18.35885972 Ry
     ewald contribution        =     -26.97282931 Ry
     Dispersion Correction     =      -0.02769118 Ry
     one-center paw contrib.   =     -23.56265033 Ry

     convergence has been achieved in   5 iterations

     Forces acting on atoms (cartesian axes, Ry/au):

     atom    1 type  1   force =     0.00000000    0.00000000    0.00000000
     atom    2 type  1   force =    -0.00000000   -0.00000000    0.00000000
     atom    3 type  1   force =     0.00000000    0.00000000    0.00000000
     atom    4 type  1   force =    -0.00000000   -0.00000000    0.00000000

     Total force =     0.000000     Total SCF correction =     0.000000


     Computing stress (Cartesian axis) and pressure

          total   stress  (Ry/bohr**3)                   (kbar)     P=       -3.30
   0.00008249   0.00000000   0.00000000           12.13        0.00        0.00
  -0.00000000   0.00008249  -0.00000000           -0.00       12.13       -0.00
   0.00000000   0.00000000  -0.00023238            0.00        0.00      -34.18

     Energy error            =      5.8E-04 Ry
     Gradient error          =      2.1E-25 Ry/Bohr
     Cell gradient error     =      3.4E+01 kbar

     number of scf cycles    =   3
     number of bfgs steps    =   2

     enthalpy           old  =     -72.4906134575 Ry
     enthalpy           new  =     -72.4911974244 Ry

     CASE: enthalpy          _new < enthalpy          _old

     new trust radius        =       0.0202717359 bohr
ibrav =      4
 celldm(1) =      4.64201325
 celldm(3) =      3.12133317
Input lattice vectors:
     0.99560501     0.00000000    -0.00000000
    -0.49780250     0.86221923    -0.00000000
     0.00000000    -0.00000000     3.10761493
New lattice vectors in INITIAL alat:
     0.99560501     0.00000000     0.00000000
    -0.49780250     0.86221923     0.00000000
     0.00000000     0.00000000     3.10761493
New lattice vectors in NEW alat (for information only):
     1.00000000     0.00000000     0.00000000
    -0.50000000     0.86602540     0.00000000
     0.00000000     0.00000000     3.12133317
Discrepancy in bohr =     0.000000    0.000000    0.000000
     new conv_thr            =       0.0000000010 Ry

     new unit-cell volume =    270.38954 a.u.^3 (    40.06760 Ang^3 )
     density =      1.99111 g/cm^3

CELL_PARAMETERS (alat=  4.66250493)
   0.995605005   0.000000000   0.000000000
  -0.497802503   0.862219227   0.000000000
   0.000000000   0.000000000   3.107614928

ATOMIC_POSITIONS (crystal)
C               -0.0000000000       -0.0000000000        0.2500000000
C                0.0000000000        0.0000000000        0.7500000000
C                0.3333333330        0.6666666660        0.2500000000
C                0.6666666660        0.3333333330        0.7500000000



     Writing config-only to output data dir ./temp/graphite.save/ :
     XML data file
     NEW-OLD atomic charge density approx. for the potential

     Check: negative core charge=   -0.000012

     total cpu time spent up to now is       14.3 secs

     Self-consistent Calculation

     iteration #  1     ecut=    40.00 Ry     beta= 0.70
     Davidson diagonalization with overlap
     ethr =  1.00E-06,  avg # of iterations =  3.2

     Threshold (ethr) on eigenvalues was too large:
     Diagonalizing with lowered threshold

     Davidson diagonalization with overlap
     ethr =  3.72E-08,  avg # of iterations =  1.6

     total cpu time spent up to now is       15.7 secs

     total energy              =     -72.49160932 Ry
     estimated scf accuracy    <       0.00000632 Ry

     iteration #  2     ecut=    40.00 Ry     beta= 0.70
     Davidson diagonalization with overlap
     ethr =  3.95E-08,  avg # of iterations =  1.1

     total cpu time spent up to now is       16.2 secs

     total energy              =     -72.49160967 Ry
     estimated scf accuracy    <       0.00000048 Ry

     iteration #  3     ecut=    40.00 Ry     beta= 0.70
     Davidson diagonalization with overlap
     ethr =  2.98E-09,  avg # of iterations =  1.1

     total cpu time spent up to now is       16.7 secs

     total energy              =     -72.49160969 Ry
     estimated scf accuracy    <       0.00000002 Ry

     iteration #  4     ecut=    40.00 Ry     beta= 0.70
     Davidson diagonalization with overlap
     ethr =  9.47E-11,  avg # of iterations =  2.5

     total cpu time spent up to now is       17.3 secs

     total energy              =     -72.49160970 Ry
     estimated scf accuracy    <          5.4E-09 Ry

     iteration #  5     ecut=    40.00 Ry     beta= 0.70
     Davidson diagonalization with overlap
     ethr =  3.36E-11,  avg # of iterations =  1.5

     total cpu time spent up to now is       17.9 secs

     End of self-consistent calculation

          k = 0.0000 0.0000 0.0000 (  1193 PWs)   bands (ev):

   -14.0042 -13.9038  -2.5683  -1.6092   2.6193   2.6193   2.6242   2.6242
     8.8869  13.3206  13.9956  13.9956

          k = 0.0000 0.0000 0.0804 (  1212 PWs)   bands (ev):

   -13.9898 -13.9189  -2.4427  -1.7675   2.6197   2.6197   2.6230   2.6230
     9.3667  12.3209  13.9978  13.9986

          k = 0.0000 0.0000-0.1609 (  1194 PWs)   bands (ev):

   -13.9545 -13.9545  -2.1210  -2.1210   2.6212   2.6212   2.6212   2.6212
    10.6508  10.6508  14.0032  14.0032

          k = 0.0000 0.0966 0.0000 (  1206 PWs)   bands (ev):

   -13.8384 -13.7392  -2.3666  -1.4149   1.9638   1.9716   2.2724   2.2790
     9.0978  13.5060  14.0483  14.0832

          k = 0.0000 0.0966 0.0804 (  1197 PWs)   bands (ev):

   -13.8241 -13.7541  -2.2419  -1.5717   1.9649   1.9707   2.2737   2.2782
     9.5748  12.5096  14.0617  14.0802

          k = 0.0000 0.0966-0.1609 (  1182 PWs)   bands (ev):

   -13.7893 -13.7893  -1.9225  -1.9225   1.9679   1.9679   2.2761   2.2761
    10.8511  10.8511  14.0721  14.0721

          k = 0.0000 0.1933 0.0000 (  1182 PWs)   bands (ev):

   -13.3427 -13.2470  -1.7663  -0.8375   0.3117   0.3289   1.4641   1.4734
     9.7316  13.9782  14.0301  14.0554

          k = 0.0000 0.1933 0.0804 (  1184 PWs)   bands (ev):

   -13.3289 -13.2613  -1.6443  -0.9901   0.3142   0.3260   1.4651   1.4720
    10.1990  13.0578  14.0160  14.0508

          k = 0.0000 0.1933-0.1609 (  1194 PWs)   bands (ev):

   -13.2955 -13.2955  -1.3323  -1.3323   0.3198   0.3198   1.4687   1.4687
    11.4483  11.4483  14.0323  14.0323

          k = 0.0000 0.2899 0.0000 (  1186 PWs)   bands (ev):

   -12.5230 -12.4330  -1.8071  -1.7795  -0.7844   0.1016   0.5680   0.5801
    10.7852  12.8080  13.0597  13.6924

          k = 0.0000 0.2899 0.0804 (  1192 PWs)   bands (ev):

   -12.5101 -12.4465  -1.8033  -1.7837  -0.6675  -0.0433   0.5697   0.5784
    11.2260  12.8463  12.9931  13.6584

          k = 0.0000 0.2899-0.1609 (  1174 PWs)   bands (ev):

   -12.4785 -12.4785  -1.7935  -1.7935  -0.3690  -0.3690   0.5745   0.5745
    12.3399  12.3399  13.0574  13.0574

          k = 0.0000 0.3866 0.0000 (  1192 PWs)   bands (ev):

   -11.3908 -11.3086  -4.0344  -3.9950  -0.1769  -0.1635   0.5353   1.3454
    10.3855  10.7899  12.2404  13.3627

          k = 0.0000 0.3866 0.0804 (  1184 PWs)   bands (ev):

   -11.3790 -11.3208  -4.0285  -4.0006  -0.1748  -0.1657   0.6434   1.2145
    10.4280  10.7169  12.6747  13.3738

          k = 0.0000 0.3866-0.1609 (  1182 PWs)   bands (ev):

   -11.3501 -11.3501  -4.0146  -4.0146  -0.1702  -0.1702   0.9177   0.9177
    10.5591  10.5591  13.3477  13.3477

          k = 0.0000 0.4832 0.0000 (  1196 PWs)   bands (ev):

    -9.9743  -9.9019  -6.1613  -6.1115  -0.6564  -0.6435   2.0542   2.7002
     8.1762   8.6595  13.1083  13.2337

          k = 0.0000 0.4832 0.0804 (  1193 PWs)   bands (ev):

    -9.9638  -9.9127  -6.1541  -6.1187  -0.6547  -0.6452   2.1435   2.5998
     8.2303   8.5726  13.1289  13.2184

          k = 0.0000 0.4832-0.1609 (  1188 PWs)   bands (ev):

    -9.9384  -9.9384  -6.1364  -6.1364  -0.6498  -0.6498   2.3661   2.3661
     8.3856   8.3856  13.1753  13.1753

          k = 0.0000-0.5799 0.0000 (  1188 PWs)   bands (ev):

    -8.6452  -8.6102  -7.7050  -7.6777  -0.8211  -0.8081   3.0649   3.3773
     7.1197   7.5100  13.0270  13.1676

          k = 0.0000-0.5799 0.0804 (  1190 PWs)   bands (ev):

    -8.6397  -8.6150  -7.7015  -7.6822  -0.8192  -0.8099   3.1157   3.3379
     7.1491   7.4258  13.0472  13.1466

          k = 0.0000-0.5799-0.1609 (  1204 PWs)   bands (ev):

    -8.6272  -8.6272  -7.6924  -7.6924  -0.8147  -0.8147   3.2323   3.2323
     7.2603   7.2603  13.0964  13.0964

          k = 0.0837 0.1450 0.0000 (  1195 PWs)   bands (ev):

   -13.5077 -13.4108  -1.9656  -1.0289   0.9267   0.9348   1.5808   1.5867
     9.5209  13.8698  14.3215  14.3830

          k = 0.0837 0.1450 0.0804 (  1192 PWs)   bands (ev):

   -13.4937 -13.4253  -1.8426  -1.1830   0.9279   0.9337   1.5817   1.5860
     9.9918  12.8850  14.3501  14.3778

          k = 0.0837 0.1450-0.1609 (  1192 PWs)   bands (ev):

   -13.4598 -13.4598  -1.5281  -1.5281   0.9308   0.9308   1.5837   1.5837
    11.2518  11.2518  14.3656  14.3656

          k = 0.0837 0.2416 0.0000 (  1191 PWs)   bands (ev):

   -12.8500 -12.7578  -1.1735  -0.7980  -0.7797  -0.2692   0.5628   0.5741
    10.3670  13.7204  13.8783  14.6106

          k = 0.0837 0.2416 0.0804 (  1192 PWs)   bands (ev):

   -12.8368 -12.7715  -1.0544  -0.7954  -0.7823  -0.4174   0.5643   0.5722
    10.8237  13.5515  13.7565  13.9376

          k = 0.0837 0.2416-0.1609 (  1192 PWs)   bands (ev):

   -12.8044 -12.8044  -0.7893  -0.7893  -0.7497  -0.7497   0.5683   0.5683
    12.0412  12.0412  13.8187  13.8187

          k = 0.0837 0.3383 0.0000 (  1189 PWs)   bands (ev):

   -11.8740 -11.7885  -2.8950  -2.8630  -0.3369  -0.3219  -0.0173   0.8300
    11.4759  11.6286  11.7731  14.2189

          k = 0.0837 0.3383 0.0804 (  1187 PWs)   bands (ev):

   -11.8617 -11.8012  -2.8903  -2.8677  -0.3348  -0.3241   0.0951   0.6922
    11.4885  11.7157  12.1023  14.1970

          k = 0.0837 0.3383-0.1609 (  1184 PWs)   bands (ev):

   -11.8317 -11.8317  -2.8789  -2.8789  -0.3295  -0.3295   0.3811   0.3811
    11.5965  11.5965  13.2519  13.2519

          k = 0.0837 0.4349 0.0000 (  1189 PWs)   bands (ev):

   -10.5974 -10.5205  -5.0437  -4.9998  -0.9804  -0.9632   1.4301   2.1716
     9.1683   9.5917  13.2744  13.9415

          k = 0.0837 0.4349 0.0804 (  1189 PWs)   bands (ev):

   -10.5863 -10.5319  -5.0373  -5.0063  -0.9778  -0.9657   1.5301   2.0533
     9.2192   9.5196  13.6475  13.9602

          k = 0.0837 0.4349-0.1609 (  1186 PWs)   bands (ev):

   -10.5593 -10.5593  -5.0219  -5.0219  -0.9717  -0.9717   1.7827   1.7827
     9.3589   9.3589  13.9705  13.9705

          k = 0.0837 0.5316 0.0000 (  1191 PWs)   bands (ev):

    -9.0859  -9.0226  -7.0181  -6.9675  -1.3129  -1.2950   2.8819   3.3549
     7.3866   7.7973  13.7615  13.9162

          k = 0.0837 0.5316 0.0804 (  1184 PWs)   bands (ev):

    -9.0767  -9.0320  -7.0108  -6.9749  -1.3102  -1.2975   2.9517   3.2868
     7.4264   7.7178  13.7838  13.8933

          k = 0.0837 0.5316-0.1609 (  1188 PWs)   bands (ev):

    -9.0545  -9.0545  -6.9930  -6.9930  -1.3039  -1.3039   3.1198   3.1198
     7.5524   7.5524  13.8380  13.8380

          k = 0.1674 0.2899 0.0000 (  1185 PWs)   bands (ev):

   -12.0361 -11.9494  -2.1240  -2.1092  -0.8276  -0.8166  -0.2038   0.6553
    11.4233  11.9798  12.1744  15.3334

          k = 0.1674 0.2899 0.0804 (  1190 PWs)   bands (ev):

   -12.0236 -11.9624  -2.1218  -2.1113  -0.8261  -0.8183  -0.0902   0.5152
    11.8582  12.0079  12.1467  14.4807

          k = 0.1674 0.2899-0.1609 (  1190 PWs)   bands (ev):

   -11.9933 -11.9933  -2.1166  -2.1166  -0.8222  -0.8222   0.1996   0.1996
    12.0759  12.0759  13.0186  13.0186

          k = 0.1674 0.3866 0.0000 (  1191 PWs)   bands (ev):

   -10.9147 -10.8356  -3.8748  -3.8439  -1.8998  -1.8792   1.1009   1.8839
     9.9677  10.2384  12.8848  15.8303

          k = 0.1674 0.3866 0.0804 (  1187 PWs)   bands (ev):

   -10.9033 -10.8474  -3.8703  -3.8485  -1.8967  -1.8822   1.2057   1.7578
    10.0049  10.1970  13.2813  15.5053

          k = 0.1674 0.3866-0.1609 (  1194 PWs)   bands (ev):

   -10.8756 -10.8756  -3.8594  -3.8594  -1.8896  -1.8896   1.4711   1.4711
    10.0989  10.0989  14.3103  14.3103

          k = 0.1674 0.4832 0.0000 (  1179 PWs)   bands (ev):

    -9.5180  -9.4489  -5.8183  -5.7733  -2.4790  -2.4531   2.6178   3.2499
     7.9902   8.3419  14.7150  15.6289

          k = 0.1674 0.4832 0.0804 (  1186 PWs)   bands (ev):

    -9.5080  -9.4592  -5.8119  -5.7801  -2.4753  -2.4570   2.7050   3.1516
     8.0340   8.2836  15.0180  15.6457

          k = 0.1674 0.4832-0.1609 (  1182 PWs)   bands (ev):

    -9.4838  -9.4838  -5.7960  -5.7960  -2.4661  -2.4661   2.9227   2.9227
     8.1519   8.1519  15.6006  15.6006

          k = 0.1674 0.5799 0.0000 (  1176 PWs)   bands (ev):

    -8.2231  -8.1899  -7.2891  -7.2648  -2.6647  -2.6374   3.6710   3.9774
     6.9910   7.2016  15.5302  15.7846

          k = 0.1674 0.5799 0.0804 (  1174 PWs)   bands (ev):

    -8.2179  -8.1945  -7.2860  -7.2688  -2.6608  -2.6413   3.7216   3.9396
     7.0016   7.1528  15.5599  15.7374

          k = 0.1674 0.5799-0.1609 (  1176 PWs)   bands (ev):

    -8.2060  -8.2060  -7.2779  -7.2779  -2.6511  -2.6511   3.8368   3.8368
     7.0582   7.0582  15.6377  15.6377

          k = 0.2511 0.4349 0.0000 (  1183 PWs)   bands (ev):

    -9.6696  -9.5991  -4.8940  -4.8719  -3.4175  -3.4005   2.5099   3.1907
     8.3426   8.5978  14.5153  16.4822

          k = 0.2511 0.4349 0.0804 (  1183 PWs)   bands (ev):

    -9.6593  -9.6096  -4.8907  -4.8751  -3.4151  -3.4031   2.6022   3.0830
     8.3799   8.5601  14.7923  16.1342

          k = 0.2511 0.4349-0.1609 (  1192 PWs)   bands (ev):

    -9.6346  -9.6346  -4.8829  -4.8829  -3.4093  -3.4093   2.8349   2.8349
     8.4697   8.4697  15.4474  15.4474

          k = 0.2511 0.5316 0.0000 (  1169 PWs)   bands (ev):

    -8.2170  -8.1603  -6.3502  -6.3119  -4.1342  -4.1047   4.0099   4.4821
     6.8189   7.0586  16.4178  16.4767

          k = 0.2511 0.5316 0.0804 (  1171 PWs)   bands (ev):

    -8.2088  -8.1687  -6.3446  -6.3175  -4.1300  -4.1092   4.0786   4.4133
     6.8481   7.0180  16.1099  16.2355

          k = 0.2511 0.5316-0.1609 (  1180 PWs)   bands (ev):

    -8.1888  -8.1888  -6.3313  -6.3313  -4.1197  -4.1197   4.2458   4.2458
     6.9271   6.9271  16.0006  16.0006

          k = 0.3348 0.5799 0.0000 (  1173 PWs)   bands (ev):

    -6.9772  -6.9479  -6.9479  -6.9203  -5.0668  -5.0668   5.3378   5.6162
     5.6162   5.9213  16.2278  16.2278

          k = 0.3348 0.5799 0.0804 (  1173 PWs)   bands (ev):

    -6.9689  -6.9478  -6.9478  -6.9288  -5.0670  -5.0670   5.4177   5.6195
     5.6195   5.8296  15.9583  15.9583

          k = 0.3348 0.5799-0.1609 (  1182 PWs)   bands (ev):

    -6.9490  -6.9490  -6.9477  -6.9477  -5.0673  -5.0673   5.6176   5.6176
     5.6226   5.6226  15.7617  15.7617

     the Fermi energy is     5.6204 ev

!    total energy              =     -72.49160970 Ry
     total all-electron energy =      -303.607721 Ry
     estimated scf accuracy    <          7.8E-11 Ry
     smearing contrib. (-TS)   =      -0.00050500 Ry
     internal energy E=F+TS    =     -72.49110470 Ry

     The total energy is F=E-TS. E is the sum of the following terms:
     one-electron contribution =     -21.54360642 Ry
     hartree contribution      =      18.31095602 Ry
     xc contribution           =     -18.35088691 Ry
     ewald contribution        =     -27.31730380 Ry
     Dispersion Correction     =      -0.02796074 Ry
     one-center paw contrib.   =     -23.56230285 Ry

     convergence has been achieved in   5 iterations

     Forces acting on atoms (cartesian axes, Ry/au):

     atom    1 type  1   force =     0.00000000    0.00000000   -0.00000000
     atom    2 type  1   force =    -0.00000000   -0.00000000    0.00000000
     atom    3 type  1   force =    -0.00000000   -0.00000000   -0.00000000
     atom    4 type  1   force =     0.00000000    0.00000000    0.00000000

     Total force =     0.000000     Total SCF correction =     0.000000


     Computing stress (Cartesian axis) and pressure

          total   stress  (Ry/bohr**3)                   (kbar)     P=       -9.89
   0.00001560   0.00000000   0.00000000            2.30        0.00        0.00
   0.00000000   0.00001560   0.00000000            0.00        2.30        0.00
  -0.00000000   0.00000000  -0.00023282           -0.00        0.00      -34.25

     Energy error            =      4.1E-04 Ry
     Gradient error          =      1.9E-25 Ry/Bohr
     Cell gradient error     =      3.4E+01 kbar

     number of scf cycles    =   4
     number of bfgs steps    =   3

     enthalpy           old  =     -72.4911974244 Ry
     enthalpy           new  =     -72.4916096996 Ry

     CASE: enthalpy          _new < enthalpy          _old

     new trust radius        =       0.0305284406 bohr
ibrav =      4
 celldm(1) =      4.64563702
 celldm(3) =      3.08994626
Input lattice vectors:
     0.99638222    -0.00000000    -0.00000000
    -0.49819111     0.86289232     0.00000000
    -0.00000000     0.00000000     3.07876751
New lattice vectors in INITIAL alat:
     0.99638222     0.00000000     0.00000000
    -0.49819111     0.86289232     0.00000000
     0.00000000     0.00000000     3.07876751
New lattice vectors in NEW alat (for information only):
     1.00000000     0.00000000     0.00000000
    -0.50000000     0.86602540     0.00000000
     0.00000000     0.00000000     3.08994626
Discrepancy in bohr =     0.000000    0.000000    0.000000
     new conv_thr            =       0.0000000010 Ry

     new unit-cell volume =    268.29797 a.u.^3 (    39.75766 Ang^3 )
     density =      2.00663 g/cm^3

CELL_PARAMETERS (alat=  4.66250493)
   0.996382221   0.000000000   0.000000000
  -0.498191111   0.862892316   0.000000000
   0.000000000   0.000000000   3.078767515

ATOMIC_POSITIONS (crystal)
C               -0.0000000000       -0.0000000000        0.2500000000
C                0.0000000000        0.0000000000        0.7500000000
C                0.3333333330        0.6666666660        0.2500000000
C                0.6666666660        0.3333333330        0.7500000000



     Writing config-only to output data dir ./temp/graphite.save/ :
     XML data file
     NEW-OLD atomic charge density approx. for the potential

     Check: negative core charge=   -0.000012

     total cpu time spent up to now is       18.6 secs

     Self-consistent Calculation

     iteration #  1     ecut=    40.00 Ry     beta= 0.70
     Davidson diagonalization with overlap
     ethr =  1.00E-06,  avg # of iterations =  3.3

     Threshold (ethr) on eigenvalues was too large:
     Diagonalizing with lowered threshold

     Davidson diagonalization with overlap
     ethr =  6.69E-08,  avg # of iterations =  1.3

     total cpu time spent up to now is       20.1 secs

     total energy              =     -72.49219025 Ry
     estimated scf accuracy    <       0.00001095 Ry

     iteration #  2     ecut=    40.00 Ry     beta= 0.70
     Davidson diagonalization with overlap
     ethr =  6.84E-08,  avg # of iterations =  1.0

     total cpu time spent up to now is       20.6 secs

     total energy              =     -72.49219045 Ry
     estimated scf accuracy    <       0.00000094 Ry

     iteration #  3     ecut=    40.00 Ry     beta= 0.70
     Davidson diagonalization with overlap
     ethr =  5.90E-09,  avg # of iterations =  1.1

     total cpu time spent up to now is       21.1 secs

     total energy              =     -72.49219049 Ry
     estimated scf accuracy    <       0.00000003 Ry

     iteration #  4     ecut=    40.00 Ry     beta= 0.70
     Davidson diagonalization with overlap
     ethr =  1.61E-10,  avg # of iterations =  2.3

     total cpu time spent up to now is       21.8 secs

     total energy              =     -72.49219050 Ry
     estimated scf accuracy    <          4.9E-09 Ry

     iteration #  5     ecut=    40.00 Ry     beta= 0.70
     Davidson diagonalization with overlap
     ethr =  3.06E-11,  avg # of iterations =  1.5

     total cpu time spent up to now is       22.4 secs

     End of self-consistent calculation

          k = 0.0000 0.0000 0.0000 (  1193 PWs)   bands (ev):

   -13.9141 -13.8048  -2.5035  -1.4878   2.6938   2.6938   2.6992   2.6992
     9.0033  13.5490  14.0551  14.0551

          k = 0.0000 0.0000 0.0812 (  1212 PWs)   bands (ev):

   -13.8985 -13.8212  -2.3710  -1.6562   2.6943   2.6943   2.6979   2.6979
     9.4985  12.5300  14.0575  14.0584

          k = 0.0000 0.0000-0.1624 (  1194 PWs)   bands (ev):

   -13.8601 -13.8601  -2.0311  -2.0311   2.6959   2.6959   2.6959   2.6959
    10.8196  10.8196  14.0634  14.0634

          k = 0.0000 0.0966 0.0000 (  1206 PWs)   bands (ev):

   -13.7485 -13.6405  -2.3021  -1.2940   2.0387   2.0474   2.3476   2.3550
     9.2134  13.7323  14.1076  14.1440

          k = 0.0000 0.0966 0.0812 (  1197 PWs)   bands (ev):

   -13.7330 -13.6567  -2.1705  -1.4609   2.0398   2.0463   2.3490   2.3540
     9.7057  12.7163  14.1216  14.1408

          k = 0.0000 0.0966-0.1624 (  1182 PWs)   bands (ev):

   -13.6951 -13.6951  -1.8330  -1.8330   2.0432   2.0432   2.3517   2.3517
    11.0185  11.0185  14.1321  14.1321

          k = 0.0000 0.1931 0.0000 (  1182 PWs)   bands (ev):

   -13.2534 -13.1491  -1.7025  -0.7184   0.3878   0.4069   1.5410   1.5514
     9.8447  14.0346  14.1154  14.2455

          k = 0.0000 0.1931 0.0812 (  1184 PWs)   bands (ev):

   -13.2384 -13.1647  -1.5737  -0.8809   0.3906   0.4037   1.5422   1.5499
    10.3270  13.2543  14.0760  14.1111

          k = 0.0000 0.1931-0.1624 (  1194 PWs)   bands (ev):

   -13.2019 -13.2019  -1.2439  -1.2439   0.3969   0.3969   1.5461   1.5461
    11.6113  11.6113  14.0905  14.0906

          k = 0.0000 0.2897 0.0000 (  1186 PWs)   bands (ev):

   -12.4346 -12.3364  -1.7289  -1.6984  -0.7216   0.2175   0.6467   0.6602
    10.8942  12.8593  13.1317  13.7443

          k = 0.0000 0.2897 0.0812 (  1192 PWs)   bands (ev):

   -12.4205 -12.3511  -1.7247  -1.7030  -0.5981   0.0633   0.6486   0.6583
    11.3480  12.9039  13.0636  13.7218

          k = 0.0000 0.2897-0.1624 (  1174 PWs)   bands (ev):

   -12.3861 -12.3861  -1.7139  -1.7139  -0.2824  -0.2824   0.6539   0.6539
    12.4774  12.4774  13.1317  13.1318

          k = 0.0000 0.3863 0.0000 (  1192 PWs)   bands (ev):

   -11.3037 -11.2139  -3.9538  -3.9105  -0.0967  -0.0818   0.5971   1.4563
    10.4384  10.8700  12.3425  13.4121

          k = 0.0000 0.3863 0.0812 (  1184 PWs)   bands (ev):

   -11.2908 -11.2273  -3.9474  -3.9167  -0.0944  -0.0842   0.7114   1.3169
    10.4840  10.7923  12.7868  13.4254

          k = 0.0000 0.3863-0.1624 (  1182 PWs)   bands (ev):

   -11.2593 -11.2593  -3.9320  -3.9320  -0.0892  -0.0892   1.0018   1.0018
    10.6240  10.6240  13.4105  13.4105

          k = 0.0000 0.4829 0.0000 (  1196 PWs)   bands (ev):

    -9.8890  -9.8100  -6.0780  -6.0233  -0.5753  -0.5608   2.1164   2.8023
     8.2344   8.7469  13.1557  13.2927

          k = 0.0000 0.4829 0.0812 (  1193 PWs)   bands (ev):

    -9.8777  -9.8218  -6.0700  -6.0312  -0.5733  -0.5627   2.2110   2.6955
     8.2912   8.6541  13.1778  13.2755

          k = 0.0000 0.4829-0.1624 (  1188 PWs)   bands (ev):

    -9.8499  -9.8499  -6.0507  -6.0507  -0.5679  -0.5679   2.4472   2.4472
     8.4552   8.4552  13.2282  13.2282

          k = 0.0000-0.5794 0.0000 (  1188 PWs)   bands (ev):

    -8.5632  -8.5250  -7.6153  -7.5854  -0.7397  -0.7250   3.1321   3.4652
     7.1883   7.5978  13.0735  13.2259

          k = 0.0000-0.5794 0.0812 (  1190 PWs)   bands (ev):

    -8.5572  -8.5302  -7.6115  -7.5904  -0.7375  -0.7271   3.1867   3.4237
     7.2175   7.5078  13.0954  13.2032

          k = 0.0000-0.5794-0.1624 (  1204 PWs)   bands (ev):

    -8.5434  -8.5434  -7.6016  -7.6016  -0.7324  -0.7324   3.3116   3.3116
     7.3326   7.3326  13.1487  13.1487

          k = 0.0836 0.1449 0.0000 (  1195 PWs)   bands (ev):

   -13.4182 -13.3126  -1.9015  -0.9092   1.0025   1.0115   1.6577   1.6643
     9.6348  14.0916  14.3806  14.4437

          k = 0.0836 0.1449 0.0812 (  1192 PWs)   bands (ev):

   -13.4030 -13.3284  -1.7718  -1.0732   1.0038   1.0102   1.6587   1.6635
    10.1208  13.0871  14.4107  14.4381

          k = 0.0836 0.1449-0.1624 (  1192 PWs)   bands (ev):

   -13.3660 -13.3660  -1.4393  -1.4393   1.0070   1.0070   1.6609   1.6609
    11.4165  11.4165  14.4253  14.4254

          k = 0.0836 0.2414 0.0000 (  1191 PWs)   bands (ev):

   -12.7612 -12.6606  -1.1103  -0.7210  -0.7006  -0.1520   0.6415   0.6541
    10.4777  13.7712  13.9470  14.8159

          k = 0.0836 0.2414 0.0812 (  1192 PWs)   bands (ev):

   -12.7468 -12.6757  -0.9846  -0.7181  -0.7035  -0.3098   0.6432   0.6520
    10.9488  13.7093  13.8127  14.0252

          k = 0.0836 0.2414-0.1624 (  1192 PWs)   bands (ev):

   -12.7116 -12.7116  -0.7112  -0.7112  -0.6624  -0.6624   0.6477   0.6477
    12.1994  12.1994  13.8751  13.8751

          k = 0.0836 0.3380 0.0000 (  1189 PWs)   bands (ev):

   -11.7863 -11.6930  -2.8158  -2.7806  -0.2568  -0.2400   0.0448   0.9432
    11.5284  11.7343  11.8469  14.2689

          k = 0.0836 0.3380 0.0812 (  1187 PWs)   bands (ev):

   -11.7729 -11.7069  -2.8106  -2.7857  -0.2544  -0.2425   0.1636   0.7965
    11.5456  11.7869  12.2184  14.2558

          k = 0.0836 0.3380-0.1624 (  1184 PWs)   bands (ev):

   -11.7402 -11.7402  -2.7981  -2.7981  -0.2485  -0.2485   0.4663   0.4663
    11.6597  11.6597  13.3969  13.3969

          k = 0.0836 0.4346 0.0000 (  1189 PWs)   bands (ev):

   -10.5112 -10.4272  -4.9620  -4.9138  -0.8992  -0.8800   1.4915   2.2784
     9.2239   9.6744  13.3711  13.9893

          k = 0.0836 0.4346 0.0812 (  1189 PWs)   bands (ev):

   -10.4992 -10.4398  -4.9550  -4.9209  -0.8964  -0.8829   1.5974   2.1525
     9.2777   9.5975  13.7459  14.0111

          k = 0.0836 0.4346-0.1624 (  1186 PWs)   bands (ev):

   -10.4697 -10.4697  -4.9380  -4.9380  -0.8896  -0.8896   1.8650   1.8650
     9.4262   9.4262  14.0257  14.0257

          k = 0.0836 0.5312 0.0000 (  1191 PWs)   bands (ev):

    -9.0022  -8.9331  -6.9329  -6.8775  -1.2312  -1.2112   2.9461   3.4488
     7.4510   7.8843  13.8072  13.9742

          k = 0.0836 0.5312 0.0812 (  1184 PWs)   bands (ev):

    -8.9922  -8.9433  -6.9249  -6.8857  -1.2282  -1.2141   3.0204   3.3766
     7.4917   7.7994  13.8312  13.9494

          k = 0.0836 0.5312-0.1624 (  1188 PWs)   bands (ev):

    -8.9680  -8.9680  -6.9054  -6.9054  -1.2212  -1.2212   3.1993   3.1993
     7.6239   7.6239  13.8896  13.8896

          k = 0.1673 0.2897 0.0000 (  1185 PWs)   bands (ev):

   -11.9482 -11.8536  -2.0460  -2.0296  -0.7458  -0.7336  -0.1416   0.7692
    11.5300  12.0334  12.2424  15.5271

          k = 0.1673 0.2897 0.0812 (  1190 PWs)   bands (ev):

   -11.9347 -11.8678  -2.0435  -2.0319  -0.7441  -0.7354  -0.0215   0.6201
    11.9776  12.0635  12.2130  14.6591

          k = 0.1673 0.2897-0.1624 (  1190 PWs)   bands (ev):

   -11.9015 -11.9015  -2.0378  -2.0378  -0.7398  -0.7398   0.2851   0.2851
    12.1365  12.1365  13.1692  13.1692

          k = 0.1673 0.3863 0.0000 (  1191 PWs)   bands (ev):

   -10.8281 -10.7418  -3.7951  -3.7612  -1.8169  -1.7942   1.1622   1.9929
    10.0239  10.3133  12.9854  15.8768

          k = 0.1673 0.3863 0.0812 (  1187 PWs)   bands (ev):

   -10.8157 -10.7546  -3.7902  -3.7662  -1.8135  -1.7975   1.2730   1.8585
    10.0636  10.2691  13.3930  15.6375

          k = 0.1673 0.3863-0.1624 (  1194 PWs)   bands (ev):

   -10.7854 -10.7854  -3.7782  -3.7782  -1.8057  -1.8057   1.5541   1.5541
    10.1642  10.1642  14.4452  14.4452

          k = 0.1673 0.4829 0.0000 (  1179 PWs)   bands (ev):

[...]
        k(   35) = (   0.0837732   0.5320314   0.1012697), wk =   0.0833333
        k(   36) = (   0.0837732   0.5320314  -0.2025393), wk =   0.0416667
        k(   37) = (   0.1675464   0.2901989   0.0000000), wk =   0.0208333
        k(   38) = (   0.1675464   0.2901989   0.1012697), wk =   0.0416667
        k(   39) = (   0.1675464   0.2901989  -0.2025393), wk =   0.0208333
        k(   40) = (   0.1675464   0.3869319   0.0000000), wk =   0.0416667
        k(   41) = (   0.1675464   0.3869319   0.1012697), wk =   0.0833333
        k(   42) = (   0.1675464   0.3869319  -0.2025393), wk =   0.0416667
        k(   43) = (   0.1675464   0.4836649   0.0000000), wk =   0.0416667
        k(   44) = (   0.1675464   0.4836649   0.1012697), wk =   0.0833333
        k(   45) = (   0.1675464   0.4836649  -0.2025393), wk =   0.0416667
        k(   46) = (   0.1675464   0.5803979   0.0000000), wk =   0.0208333
        k(   47) = (   0.1675464   0.5803979   0.1012697), wk =   0.0416667
        k(   48) = (   0.1675464   0.5803979  -0.2025393), wk =   0.0208333
        k(   49) = (   0.2513196   0.4352984   0.0000000), wk =   0.0208333
        k(   50) = (   0.2513196   0.4352984   0.1012697), wk =   0.0416667
        k(   51) = (   0.2513196   0.4352984  -0.2025393), wk =   0.0208333
        k(   52) = (   0.2513196   0.5320314   0.0000000), wk =   0.0416667
        k(   53) = (   0.2513196   0.5320314   0.1012697), wk =   0.0833333
        k(   54) = (   0.2513196   0.5320314  -0.2025393), wk =   0.0416667
        k(   55) = (   0.3350929   0.5803979   0.0000000), wk =   0.0069444
        k(   56) = (   0.3350929   0.5803979   0.1012697), wk =   0.0138889
        k(   57) = (   0.3350929   0.5803979  -0.2025393), wk =   0.0069444

     Dense  grid:    20699 G-vectors     FFT dimensions: (  27,  27,  72)

     Smooth grid:     7343 G-vectors     FFT dimensions: (  20,  20,  48)

     Estimated max dynamical RAM per process >      10.67 MB

     Estimated total dynamical RAM >      42.69 MB

     Check: negative core charge=   -0.000012

     Initial potential from superposition of free atoms

     starting charge      15.9998, renormalised to      16.0000
     Starting wfcs are   16 randomized atomic wfcs
     Checking if some PAW data can be deallocated... 

     total cpu time spent up to now is       94.3 secs

     Self-consistent Calculation

     iteration #  1     ecut=    40.00 Ry     beta= 0.70
     Davidson diagonalization with overlap
     c_bands:  1 eigenvalues not converged
     c_bands:  1 eigenvalues not converged
     c_bands:  2 eigenvalues not converged
     c_bands:  2 eigenvalues not converged
     c_bands:  1 eigenvalues not converged
     c_bands:  1 eigenvalues not converged
     c_bands:  2 eigenvalues not converged
     c_bands:  1 eigenvalues not converged
     c_bands:  2 eigenvalues not converged
     c_bands:  2 eigenvalues not converged
     c_bands:  2 eigenvalues not converged
     c_bands:  1 eigenvalues not converged
     c_bands:  1 eigenvalues not converged
     c_bands:  2 eigenvalues not converged
     c_bands:  1 eigenvalues not converged
     ethr =  1.00E-06,  avg # of iterations = 14.4

     total cpu time spent up to now is       96.2 secs

     total energy              =     -72.44501151 Ry
     estimated scf accuracy    <       0.38503947 Ry

     iteration #  2     ecut=    40.00 Ry     beta= 0.70
     Davidson diagonalization with overlap
     ethr =  2.41E-03,  avg # of iterations =  2.2

     total cpu time spent up to now is       96.7 secs

     total energy              =     -72.50211925 Ry
     estimated scf accuracy    <       0.00371738 Ry

     iteration #  3     ecut=    40.00 Ry     beta= 0.70
     Davidson diagonalization with overlap
     ethr =  2.32E-05,  avg # of iterations =  4.5

     total cpu time spent up to now is       97.3 secs

     total energy              =     -72.50253394 Ry
     estimated scf accuracy    <       0.00030072 Ry

     iteration #  4     ecut=    40.00 Ry     beta= 0.70
     Davidson diagonalization with overlap
     c_bands:  1 eigenvalues not converged
     c_bands:  1 eigenvalues not converged
     ethr =  1.88E-06,  avg # of iterations =  3.3

     total cpu time spent up to now is       97.8 secs

     total energy              =     -72.50257088 Ry
     estimated scf accuracy    <       0.00000496 Ry

     iteration #  5     ecut=    40.00 Ry     beta= 0.70
     Davidson diagonalization with overlap
     ethr =  3.10E-08,  avg # of iterations =  3.1

     total cpu time spent up to now is       98.4 secs

     total energy              =     -72.50257340 Ry
     estimated scf accuracy    <       0.00000046 Ry

     iteration #  6     ecut=    40.00 Ry     beta= 0.70
     Davidson diagonalization with overlap
     ethr =  2.87E-09,  avg # of iterations =  2.2

     total cpu time spent up to now is       98.9 secs

     total energy              =     -72.50257352 Ry
     estimated scf accuracy    <       0.00000002 Ry

     iteration #  7     ecut=    40.00 Ry     beta= 0.70
     Davidson diagonalization with overlap
     ethr =  1.52E-10,  avg # of iterations =  2.1

     total cpu time spent up to now is       99.4 secs

     total energy              =     -72.50257353 Ry
     estimated scf accuracy    <          1.6E-09 Ry

     iteration #  8     ecut=    40.00 Ry     beta= 0.70
     Davidson diagonalization with overlap
     ethr =  1.03E-11,  avg # of iterations =  2.2

     total cpu time spent up to now is       99.9 secs

     End of self-consistent calculation

          k = 0.0000 0.0000 0.0000 (   923 PWs)   bands (ev):

   -11.7117 -11.0882  -0.9984   2.1937   5.1899   5.1899   5.2375   5.2375
    13.1637  16.5463  16.5463  16.6649

          k = 0.0000 0.0000 0.1013 (   923 PWs)   bands (ev):

   -11.6299 -11.1902  -0.6078   1.6073   5.1971   5.1971   5.2306   5.2306
    14.1967  16.5624  16.5624  16.6451

          k = 0.0000 0.0000-0.2025 (   924 PWs)   bands (ev):

   -11.4198 -11.4198   0.4112   0.4112   5.2133   5.2133   5.2133   5.2133
    16.6021  16.6021  16.6021  16.6021

          k = 0.0000 0.0967 0.0000 (   914 PWs)   bands (ev):

   -11.5434 -10.9254  -0.7927   2.3800   4.5163   4.6009   4.8308   4.9031
    13.3541  16.5830  16.7585  17.2536

          k = 0.0000 0.0967 0.1013 (   921 PWs)   bands (ev):

   -11.4621 -11.0264  -0.4043   1.7980   4.5285   4.5875   4.8413   4.8925
    14.3749  16.5988  16.7350  17.2704

          k = 0.0000 0.0967-0.2025 (   924 PWs)   bands (ev):

   -11.2539 -11.2539   0.6089   0.6089   4.5576   4.5576   4.8670   4.8670
    16.5531  16.5531  16.9705  16.9705

          k = 0.0000 0.1935 0.0000 (   926 PWs)   bands (ev):

   -11.0401 -10.4389  -0.1797   2.8302   2.9317   2.9815   4.0060   4.1082
    13.9286  16.4478  16.8089  17.2927

          k = 0.0000 0.1935 0.1013 (   921 PWs)   bands (ev):

   -10.9607 -10.5368   0.2020   2.3626   2.8528   2.9593   4.0206   4.0920
    14.9063  16.4639  16.7459  17.4349

          k = 0.0000 0.1935-0.2025 (   914 PWs)   bands (ev):

   -10.7578 -10.7578   1.1972   1.1972   2.9055   2.9055   4.0562   4.0562
    16.4654  16.4654  17.3874  17.3874

          k = 0.0000 0.2902 0.0000 (   926 PWs)   bands (ev):

   -10.2076  -9.6340   0.6734   0.8271   0.9005   3.1002   3.2189   3.8207
    14.8739  14.9510  16.0896  16.0925

          k = 0.0000 0.2902 0.1013 (   918 PWs)   bands (ev):

   -10.1314  -9.7269   0.7052   0.8647   1.1983   3.1174   3.2015   3.2795
    15.0123  15.7588  15.9040  16.1921

          k = 0.0000 0.2902-0.2025 (   914 PWs)   bands (ev):

    -9.9374  -9.9374   0.7842   0.7842   2.1595   2.1595   3.1590   3.1590
    15.3850  15.3850  16.3715  16.3715

          k = 0.0000 0.3869 0.0000 (   916 PWs)   bands (ev):

    -9.0576  -8.5224  -1.5888  -1.2896   2.1928   2.3491   2.4775   4.9636
    12.4219  13.9642  15.6375  16.1056

          k = 0.0000 0.3869 0.1013 (   916 PWs)   bands (ev):

    -8.9859  -8.6084  -1.5473  -1.3360   2.3678   2.4582   2.5416   4.4764
    12.5802  13.6773  15.7640  16.1963

          k = 0.0000 0.3869-0.2025 (   918 PWs)   bands (ev):

    -8.8042  -8.8042  -1.4438  -1.4438   2.4122   2.4122   3.4439   3.4439
    13.0740  13.0740  16.0048  16.0048

          k = 0.0000 0.4837 0.0000 (   910 PWs)   bands (ev):

    -7.6164  -7.1337  -3.7456  -3.3870   1.8658   1.9997   3.8130   6.0317
    10.3205  11.9219  15.3919  16.1497

          k = 0.0000 0.4837 0.1013 (   923 PWs)   bands (ev):

    -7.5511  -7.2104  -3.6966  -3.4433   1.8846   1.9791   4.1208   5.6990
    10.4183  11.5771  15.4989  16.0371

          k = 0.0000 0.4837-0.2025 (   916 PWs)   bands (ev):

    -7.3863  -7.3863  -3.5735  -3.5735   1.9318   1.9318   4.8932   4.8932
    10.8888  10.8888  15.7625  15.7625

          k = 0.0000-0.5804 0.0000 (   916 PWs)   bands (ev):

    -6.2108  -5.9784  -5.1770  -5.0071   1.6990   1.8351   5.0146   6.1099
     9.7641  10.6867  15.2961  16.0906

          k = 0.0000-0.5804 0.1013 (   924 PWs)   bands (ev):

    -6.1652  -5.9948  -5.1792  -5.0528   1.7195   1.8146   5.2523   6.0746
     9.6335  10.3371  15.4043  15.9679

          k = 0.0000-0.5804-0.2025 (   916 PWs)   bands (ev):

    -6.0655  -6.0655  -5.1397  -5.1397   1.7667   1.7667   5.7639   5.7639
     9.7568   9.7568  15.6762  15.6762

          k = 0.0838 0.1451 0.0000 (   927 PWs)   bands (ev):

   -11.2076 -10.6008  -0.3833   2.7492   3.4765   3.5542   4.1459   4.2047
    13.7391  16.8477  17.0655  17.8567

          k = 0.0838 0.1451 0.1013 (   926 PWs)   bands (ev):

   -11.1275 -10.6997   0.0006   2.1759   3.4891   3.5444   4.1525   4.1942
    14.7361  16.8446  17.0316  17.9627

          k = 0.0838 0.1451-0.2025 (   922 PWs)   bands (ev):

   -10.9229 -10.9229   1.0020   1.0020   3.5186   3.5186   4.1713   4.1713
    16.7416  16.7417  17.3681  17.3682

          k = 0.0838 0.2418 0.0000 (   930 PWs)   bands (ev):

   -10.5397  -9.9552   0.4273   1.7131   1.8731   3.1006   3.2085   3.4719
    14.5113  15.9472  16.7824  16.9035

          k = 0.0838 0.2418 0.1013 (   919 PWs)   bands (ev):

   -10.4622 -10.0500   0.8015   1.7367   1.8504   2.9190   3.1152   3.1918
    15.4336  16.0473  16.5920  16.9998

          k = 0.0838 0.2418-0.2025 (   914 PWs)   bands (ev):

   -10.2647 -10.2647   1.7516   1.7516   1.8203   1.8203   3.1524   3.1524
    16.2346  16.2346  17.0966  17.0966

          k = 0.0838 0.3386 0.0000 (   920 PWs)   bands (ev):

    -9.5484  -8.9968  -0.4262  -0.1758   1.6174   2.1821   2.3244   4.5014
    13.5788  14.7988  15.6433  16.5899

          k = 0.0838 0.3386 0.1013 (   917 PWs)   bands (ev):

    -9.4748  -9.0857  -0.3910  -0.2141   1.9761   2.2022   2.3030   3.9855
    13.7163  14.5847  16.4482  16.7025

          k = 0.0838 0.3386-0.2025 (   912 PWs)   bands (ev):

    -9.2878  -9.2878  -0.3040  -0.3040   2.2517   2.2517   2.9080   2.9080
    14.1213  14.1213  16.8525  16.8525

          k = 0.0838 0.4353 0.0000 (   918 PWs)   bands (ev):

    -8.2510  -7.7437  -2.6107  -2.2871   1.5300   1.6877   3.1304   5.6866
    11.2274  12.7580  16.2143  16.8723

          k = 0.0838 0.4353 0.1013 (   921 PWs)   bands (ev):

    -8.1827  -7.8248  -2.5660  -2.3372   1.5525   1.6641   3.4607   5.2548
    11.3798  12.4757  16.3256  16.8227

          k = 0.0838 0.4353-0.2025 (   914 PWs)   bands (ev):

    -8.0100  -8.0100  -2.4542  -2.4542   1.6078   1.6078   4.3085   4.3085
    11.8702  11.8702  16.5780  16.5780

          k = 0.0838 0.5320 0.0000 (   914 PWs)   bands (ev):

    -6.7059  -6.2762  -4.6010  -4.2445   1.1943   1.3578   4.7425   6.3475
     9.8135  10.9715  16.0349  16.8401

          k = 0.0838 0.5320 0.1013 (   914 PWs)   bands (ev):

    -6.6464  -6.3424  -4.5546  -4.3024   1.2175   1.3335   5.0127   6.1900
     9.7779  10.6533  16.1408  16.7117

          k = 0.0838 0.5320-0.2025 (   912 PWs)   bands (ev):

    -6.4978  -6.4978  -4.4341  -4.4341   1.2750   1.2750   5.6490   5.6490
    10.0548  10.0548  16.4113  16.4113

          k = 0.1675 0.2902 0.0000 (   923 PWs)   bands (ev):

    -9.7131  -9.1560   0.3962   0.5217   1.4237   1.7169   1.8092   4.3429
    14.1644  15.0398  15.4824  18.0562

          k = 0.1675 0.2902 0.1013 (   916 PWs)   bands (ev):

    -9.6387  -9.2459   0.4164   0.5052   1.7261   1.7861   1.7918   3.8185
    14.2877  14.8914  16.3726  18.1123

          k = 0.1675 0.2902-0.2025 (   912 PWs)   bands (ev):

    -9.4501  -9.4501   0.4628   0.4628   1.7553   1.7553   2.7268   2.7268
    14.5862  14.5862  18.0293  18.0293

          k = 0.1675 0.3869 0.0000 (   914 PWs)   bands (ev):

    -8.5735  -8.0550  -1.4033  -1.1664   0.6051   0.7742   2.7758   5.4732
    12.0833  13.1804  16.8029  18.1560

          k = 0.1675 0.3869 0.1013 (   918 PWs)   bands (ev):

    -8.5039  -8.1380  -1.3693  -1.2017   0.6270   0.7469   3.1164   5.0008
    12.2342  13.0108  17.5197  18.2348

          k = 0.1675 0.3869-0.2025 (   926 PWs)   bands (ev):

    -8.3277  -8.3277  -1.2860  -1.2860   0.6841   0.6841   3.9964   3.9964
    12.6171  12.6171  18.3625  18.3625

          k = 0.1675 0.4837 0.0000 (   911 PWs)   bands (ev):

    -7.1522  -6.6867  -3.3885  -3.0608   0.0047   0.2153   4.3875   6.5817
    10.1599  11.3895  17.8720  18.4200

          k = 0.1675 0.4837 0.1013 (   911 PWs)   bands (ev):

    -7.0889  -6.7602  -3.3433  -3.1119   0.0336   0.1828   4.6897   6.2478
    10.2697  11.1637  17.9719  18.4682

          k = 0.1675 0.4837-0.2025 (   916 PWs)   bands (ev):

    -6.9298  -6.9298  -3.2304  -3.2304   0.1063   0.1063   5.4489   5.4489
    10.6671  10.6671  18.1950  18.1950

          k = 0.1675 0.5804 0.0000 (   916 PWs)   bands (ev):

    -5.7824  -5.5573  -4.7550  -4.6027  -0.1856   0.0342   5.6163   6.6852
     9.7781  10.0858  17.7820  18.7437

          k = 0.1675 0.5804 0.1013 (   910 PWs)   bands (ev):

    -5.7385  -5.5741  -4.7572  -4.6439  -0.1550   0.0005   5.8551   6.6625
     9.6014   9.8951  17.8668  18.5124

          k = 0.1675 0.5804-0.2025 (   904 PWs)   bands (ev):

    -5.6430  -5.6430  -4.7221  -4.7221  -0.0789  -0.0789   6.3667   6.3667
     9.5681   9.5681  18.1000  18.1000

          k = 0.2513 0.4353 0.0000 (   913 PWs)   bands (ev):

    -7.3072  -6.8339  -2.4015  -2.2321  -0.8913  -0.7656   4.2513   6.6372
    10.4533  11.5215  18.2445  19.9080

          k = 0.2513 0.4353 0.1013 (   910 PWs)   bands (ev):

    -7.2430  -6.9089  -2.3737  -2.2531  -0.8811  -0.7912   4.5633   6.2401
    10.6150  11.3602  18.4857  19.4761

          k = 0.2513 0.4353-0.2025 (   920 PWs)   bands (ev):

    -7.0814  -7.0814  -2.3103  -2.3103  -0.8441  -0.8441   5.3600   5.3600
    10.9924  10.9924  18.8363  18.8364

          k = 0.2513 0.5320 0.0000 (   903 PWs)   bands (ev):

    -5.8207  -5.4258  -3.8991  -3.6223  -1.6574  -1.4358   5.8711   7.4885
     9.1249  10.0625  19.7222  19.8913

          k = 0.2513 0.5320 0.1013 (   909 PWs)   bands (ev):

    -5.7655  -5.4862  -3.8613  -3.6652  -1.6302  -1.4731   6.1373   7.3274
     9.1825   9.8447  18.7546  19.0678

          k = 0.2513 0.5320-0.2025 (   904 PWs)   bands (ev):

    -5.6285  -5.6285  -3.7657  -3.7657  -1.5564  -1.5564   6.7729   6.7729
     9.4499   9.4499  18.4532  18.4532

          k = 0.3351 0.5804 0.0000 (   909 PWs)   bands (ev):

    -4.5914  -4.3834  -4.3834  -4.1734  -2.4896  -2.4896   7.0577   8.0680
     8.0680   9.4108  19.5979  19.5979

          k = 0.3351 0.5804 0.1013 (   891 PWs)   bands (ev):

    -4.5344  -4.3774  -4.3774  -4.2393  -2.5012  -2.5012   7.3549   8.1188
     8.1188   9.0002  18.6044  18.6044

          k = 0.3351 0.5804-0.2025 (   900 PWs)   bands (ev):

    -4.3913  -4.3913  -4.3715  -4.3715  -2.5129  -2.5129   8.1234   8.1234
     8.1701   8.1701  18.0662  18.0662

     the Fermi energy is     8.1200 ev

!    total energy              =     -72.50257353 Ry
     total all-electron energy =      -303.618685 Ry
     estimated scf accuracy    <          1.2E-11 Ry
     smearing contrib. (-TS)   =      -0.00038757 Ry
     internal energy E=F+TS    =     -72.50218596 Ry

     The total energy is F=E-TS. E is the sum of the following terms:
     one-electron contribution =      -3.11892941 Ry
     hartree contribution      =      10.63683134 Ry
     xc contribution           =     -18.39365522 Ry
     ewald contribution        =     -38.01832807 Ry
     Dispersion Correction     =      -0.04495774 Ry
     one-center paw contrib.   =     -23.56314685 Ry

     convergence has been achieved in   8 iterations

     Forces acting on atoms (cartesian axes, Ry/au):

     atom    1 type  1   force =     0.00000000   -0.00000000    0.00000000
     atom    2 type  1   force =     0.00000000    0.00000000    0.00000000
     atom    3 type  1   force =     0.00000000   -0.00000000    0.00000000
     atom    4 type  1   force =    -0.00000000    0.00000000    0.00000000

     Total force =     0.000000     Total SCF correction =     0.000000


     Computing stress (Cartesian axis) and pressure

          total   stress  (Ry/bohr**3)                   (kbar)     P=       -5.44
  -0.00002918   0.00000000   0.00000000           -4.29        0.00        0.00
   0.00000000  -0.00002918  -0.00000000            0.00       -4.29       -0.00
   0.00000000  -0.00000000  -0.00005266            0.00       -0.00       -7.75


     Writing all to output data dir ./temp/graphite.save/ :
     XML data file, charge density, pseudopotentials, collected wavefunctions

     init_run     :      1.06s CPU      1.13s WALL (       2 calls)
     electrons    :     75.24s CPU     81.08s WALL (      22 calls)
     update_pot   :      0.84s CPU      0.85s WALL (      20 calls)
     forces       :      4.36s CPU      4.43s WALL (      22 calls)
     force_london :      2.03s CPU      2.04s WALL (      22 calls)
     stress       :     11.37s CPU     11.48s WALL (      22 calls)
     stres_london :      3.10s CPU      3.14s WALL (      22 calls)

     Called by init_run:
     wfcinit      :      0.42s CPU      0.47s WALL (       2 calls)
     potinit      :      0.25s CPU      0.25s WALL (       2 calls)
     hinit0       :      0.32s CPU      0.32s WALL (       2 calls)

     Called by electrons:
     c_bands      :     58.94s CPU     63.71s WALL (     121 calls)
     sum_band     :      8.25s CPU      9.03s WALL (     121 calls)
     v_of_rho     :      1.15s CPU      1.19s WALL (     132 calls)
     newd         :      1.02s CPU      1.05s WALL (     132 calls)
     PAW_pot      :      4.69s CPU      4.76s WALL (     152 calls)
     mix_rho      :      0.09s CPU      0.09s WALL (     121 calls)
     energy_londo :      2.59s CPU      2.61s WALL (      22 calls)

     Called by c_bands:
     init_us_2    :      1.16s CPU      1.24s WALL (   17556 calls)
     cegterg      :     56.88s CPU     61.51s WALL (    6897 calls)

     Called by *egterg:
     cdiaghg      :      3.61s CPU      3.87s WALL (   21812 calls)
     h_psi        :     34.36s CPU     37.36s WALL (   23693 calls)
     s_psi        :      4.16s CPU      4.50s WALL (   23693 calls)
     g_psi        :      0.18s CPU      0.19s WALL (   16682 calls)

     Called by h_psi:
     h_psi:calbec :      5.15s CPU      5.61s WALL (   23693 calls)
     vloc_psi     :     24.86s CPU     27.00s WALL (   23693 calls)
     add_vuspsi   :      4.09s CPU      4.47s WALL (   23693 calls)

     General routines
     calbec       :      9.91s CPU     10.61s WALL (   38000 calls)
     fft          :      0.99s CPU      1.03s WALL (    2253 calls)
     ffts         :      0.17s CPU      0.17s WALL (     253 calls)
     fftw         :     24.11s CPU     26.26s WALL (  520472 calls)
     interpolate  :      0.22s CPU      0.22s WALL (     132 calls)

     Parallel routines

     PWSCF        :   1m34.47s CPU   1m40.64s WALL


   This run was terminated on:  22:20:54  25Dec2024            

=------------------------------------------------------------------------------=
   JOB DONE.
=------------------------------------------------------------------------------=
