
     Program PWSCF v.7.3.1 starts on 22Dec2024 at  7: 8:37 

     This program is part of the open-source Quantum ESPRESSO suite
     for quantum simulation of materials; please cite
         "P. Giannozzi et al., J. Phys.:Condens. Matter 21 395502 (2009);
         "P. Giannozzi et al., J. Phys.:Condens. Matter 29 465901 (2017);
         "P. Giannozzi et al., J. Chem. Phys. 152 154105 (2020);
          URL http://www.quantum-espresso.org", 
     in publications or presentations arising from this work. More details at
     http://www.quantum-espresso.org/quote

     Parallel version (MPI), running on     8 processors

     MPI processes distributed on     1 nodes
     10512 MiB available memory on the printing compute node when the environment starts

     Reading input from bands.in

     Current dimensions of program PWSCF are:
     Max number of different atomic species (ntypx) = 10
     Max number of k-points (npk) =  40000
     Max angular momentum in pseudopotentials (lmaxx) =  4
     file Si.pbesol-n-kjpaw_psl.1.0.0.UPF: wavefunction(s)  3S 3P renormalized

     Atomic positions and unit cell read from directory:
     ./temp/silicon.save/


     R & G space division:  proc/nbgrp/npool/nimage =       8
     Subspace diagonalization in iterative solution of the eigenvalue problem:
     a serial algorithm will be used


     Parallelization info
     --------------------
     sticks:   dense  smooth     PW     G-vecs:    dense   smooth      PW
     Min          91      91     26                 1617     1617     263
     Max          92      92     27                 1618     1618     266
     Sum         733     733    211                12939    12939    2109

     Using Slab Decomposition



     bravais-lattice index     =           -5
     lattice parameter (alat)  =       7.2607  a.u.
     unit-cell volume          =     270.6605 (a.u.)^3
     number of atoms/cell      =            2
     number of atomic types    =            1
     number of electrons       =         8.00
     number of Kohn-Sham states=            8
     kinetic-energy cutoff     =      50.0000  Ry
     charge density cutoff     =     200.0000  Ry
     Exchange-correlation= SLA  PW   PSX  PSC
                           (   1   4  10   8   0   0   0)

     celldm(1)=   7.260725  celldm(2)=   0.000000  celldm(3)=   0.000000
     celldm(4)=   0.500000  celldm(5)=   0.000000  celldm(6)=   0.000000

     crystal axes: (cart. coord. in units of alat)
               a(1) = (   0.000000   0.707107   0.707107 )  
               a(2) = (   0.707107   0.000000   0.707107 )  
               a(3) = (   0.707107   0.707107   0.000000 )  

     reciprocal axes: (cart. coord. in units 2 pi/alat)
               b(1) = ( -0.707107  0.707107  0.707107 )  
               b(2) = (  0.707107 -0.707107  0.707107 )  
               b(3) = (  0.707107  0.707107 -0.707107 )  


     PseudoPot. # 1 for Si read from file:
     ./../../pseudos/Si.pbesol-n-kjpaw_psl.1.0.0.UPF
     MD5 check sum: 9fbd692c527d147d9ad0870b71777ff4
     Pseudo is Projector augmented-wave + core cor, Zval =  4.0
     Generated using &quot;atomic&quot; code by A. Dal Corso  v.6.3
     Shape of augmentation charge: PSQ
     Using radial grid of 1141 points,  6 beta functions with: 
                l(1) =   0
                l(2) =   0
                l(3) =   1
                l(4) =   1
                l(5) =   2
                l(6) =   2
     Q(r) pseudized with 0 coefficients 


     atomic species   valence    mass     pseudopotential
     Si                4.00    28.08550     Si( 1.00)

     48 Sym. Ops., with inversion, found (24 have fractional translation)


                                    s                        frac. trans.

      isym =  1     identity                                     

 cryst.   s( 1) = (     1          0          0      )
                  (     0          1          0      )
                  (     0          0          1      )

 cart.    s( 1) = (  1.0000000  0.0000000  0.0000000 )
                  (  0.0000000  1.0000000  0.0000000 )
                  (  0.0000000  0.0000000  1.0000000 )


      isym =  2     180 deg rotation - cart. axis [0,0,1]        

 cryst.   s( 2) = (     0          1         -1      )
                  (     1          0         -1      )
                  (     0          0         -1      )

 cart.    s( 2) = ( -1.0000000  0.0000000  0.0000000 )
                  (  0.0000000 -1.0000000  0.0000000 )
                  (  0.0000000  0.0000000  1.0000000 )


      isym =  3     180 deg rotation - cart. axis [0,1,0]        

 cryst.   s( 3) = (     0         -1          1      )
                  (     0         -1          0      )
                  (     1         -1          0      )

 cart.    s( 3) = ( -1.0000000  0.0000000  0.0000000 )
                  (  0.0000000  1.0000000  0.0000000 )
                  (  0.0000000  0.0000000 -1.0000000 )


      isym =  4     180 deg rotation - cart. axis [1,0,0]        

 cryst.   s( 4) = (    -1          0          0      )
                  (    -1          0          1      )
                  (    -1          1          0      )

 cart.    s( 4) = (  1.0000000  0.0000000  0.0000000 )
                  (  0.0000000 -1.0000000  0.0000000 )
                  (  0.0000000  0.0000000 -1.0000000 )


      isym =  5     180 deg rotation - cart. axis [1,1,0]        

 cryst.   s( 5) = (    -1          0          1      )    f =( -0.2499998 )
                  (     0         -1          1      )       ( -0.2499998 )
                  (     0          0          1      )       ( -0.2500001 )

 cart.    s( 5) = (  0.0000000  1.0000000  0.0000000 )    f =( -0.3535533 )
                  (  1.0000000  0.0000000  0.0000000 )       ( -0.3535533 )
                  (  0.0000000  0.0000000 -1.0000000 )       ( -0.3535531 )


      isym =  6     180 deg rotation - cart. axis [1,-1,0]       

 cryst.   s( 6) = (     0         -1          0      )    f =( -0.2499998 )
                  (    -1          0          0      )       ( -0.2499998 )
                  (     0          0         -1      )       ( -0.2499998 )

 cart.    s( 6) = (  0.0000000 -1.0000000  0.0000000 )    f =( -0.3535531 )
                  ( -1.0000000  0.0000000  0.0000000 )       ( -0.3535531 )
                  (  0.0000000  0.0000000 -1.0000000 )       ( -0.3535531 )


      isym =  7      90 deg rotation - cart. axis [0,0,-1]       

 cryst.   s( 7) = (     0          1          0      )    f =( -0.2499998 )
                  (     0          1         -1      )       ( -0.2500001 )
                  (    -1          1          0      )       ( -0.2499998 )

 cart.    s( 7) = (  0.0000000  1.0000000  0.0000000 )    f =( -0.3535533 )
                  ( -1.0000000  0.0000000  0.0000000 )       ( -0.3535531 )
                  (  0.0000000  0.0000000  1.0000000 )       ( -0.3535533 )


      isym =  8      90 deg rotation - cart. axis [0,0,1]        

 cryst.   s( 8) = (     1          0         -1      )    f =( -0.2500001 )
                  (     1          0          0      )       ( -0.2499998 )
                  (     1         -1          0      )       ( -0.2499998 )

 cart.    s( 8) = (  0.0000000 -1.0000000  0.0000000 )    f =( -0.3535531 )
                  (  1.0000000  0.0000000  0.0000000 )       ( -0.3535533 )
                  (  0.0000000  0.0000000  1.0000000 )       ( -0.3535533 )


      isym =  9     180 deg rotation - cart. axis [1,0,1]        

 cryst.   s( 9) = (    -1          1          0      )    f =( -0.2499998 )
                  (     0          1          0      )       ( -0.2500001 )
                  (     0          1         -1      )       ( -0.2499998 )

 cart.    s( 9) = (  0.0000000  0.0000000  1.0000000 )    f =( -0.3535533 )
                  (  0.0000000 -1.0000000  0.0000000 )       ( -0.3535531 )
                  (  1.0000000  0.0000000  0.0000000 )       ( -0.3535533 )


      isym = 10     180 deg rotation - cart. axis [-1,0,1]       

 cryst.   s(10) = (     0          0         -1      )    f =( -0.2499998 )
                  (     0         -1          0      )       ( -0.2499998 )
                  (    -1          0          0      )       ( -0.2499998 )

 cart.    s(10) = (  0.0000000  0.0000000 -1.0000000 )    f =( -0.3535531 )
                  (  0.0000000 -1.0000000  0.0000000 )       ( -0.3535531 )
                  ( -1.0000000  0.0000000  0.0000000 )       ( -0.3535531 )


      isym = 11      90 deg rotation - cart. axis [0,1,0]        

 cryst.   s(11) = (     0          0          1      )    f =( -0.2499998 )
                  (    -1          0          1      )       ( -0.2499998 )
                  (     0         -1          1      )       ( -0.2500001 )

 cart.    s(11) = (  0.0000000  0.0000000  1.0000000 )    f =( -0.3535533 )
                  (  0.0000000  1.0000000  0.0000000 )       ( -0.3535533 )
                  ( -1.0000000  0.0000000  0.0000000 )       ( -0.3535531 )


      isym = 12      90 deg rotation - cart. axis [0,-1,0]       

 cryst.   s(12) = (     1         -1          0      )    f =( -0.2500001 )
                  (     1          0         -1      )       ( -0.2499998 )
                  (     1          0          0      )       ( -0.2499998 )

 cart.    s(12) = (  0.0000000  0.0000000 -1.0000000 )    f =( -0.3535531 )
                  (  0.0000000  1.0000000  0.0000000 )       ( -0.3535533 )
                  (  1.0000000  0.0000000  0.0000000 )       ( -0.3535533 )


      isym = 13     180 deg rotation - cart. axis [0,1,1]        

 cryst.   s(13) = (     1          0          0      )    f =( -0.2500001 )
                  (     1         -1          0      )       ( -0.2499998 )
                  (     1          0         -1      )       ( -0.2499998 )

 cart.    s(13) = ( -1.0000000  0.0000000  0.0000000 )    f =( -0.3535531 )
                  (  0.0000000  0.0000000  1.0000000 )       ( -0.3535533 )
                  (  0.0000000  1.0000000  0.0000000 )       ( -0.3535533 )


      isym = 14     180 deg rotation - cart. axis [0,1,-1]       

 cryst.   s(14) = (    -1          0          0      )    f =( -0.2499998 )
                  (     0          0         -1      )       ( -0.2499998 )
                  (     0         -1          0      )       ( -0.2499998 )

 cart.    s(14) = ( -1.0000000  0.0000000  0.0000000 )    f =( -0.3535531 )
                  (  0.0000000  0.0000000 -1.0000000 )       ( -0.3535531 )
                  (  0.0000000 -1.0000000  0.0000000 )       ( -0.3535531 )


      isym = 15      90 deg rotation - cart. axis [-1,0,0]       

 cryst.   s(15) = (     0         -1          1      )    f =( -0.2499998 )
                  (     0          0          1      )       ( -0.2499998 )
                  (    -1          0          1      )       ( -0.2500001 )

 cart.    s(15) = (  1.0000000  0.0000000  0.0000000 )    f =( -0.3535533 )
                  (  0.0000000  0.0000000  1.0000000 )       ( -0.3535533 )
                  (  0.0000000 -1.0000000  0.0000000 )       ( -0.3535531 )


      isym = 16      90 deg rotation - cart. axis [1,0,0]        

 cryst.   s(16) = (     0          1         -1      )    f =( -0.2499998 )
                  (    -1          1          0      )       ( -0.2500001 )
                  (     0          1          0      )       ( -0.2499998 )

 cart.    s(16) = (  1.0000000  0.0000000  0.0000000 )    f =( -0.3535533 )
                  (  0.0000000  0.0000000 -1.0000000 )       ( -0.3535531 )
                  (  0.0000000  1.0000000  0.0000000 )       ( -0.3535533 )


      isym = 17     120 deg rotation - cart. axis [-1,-1,-1]     

 cryst.   s(17) = (     0          0          1      )
                  (     1          0          0      )
                  (     0          1          0      )

 cart.    s(17) = (  0.0000000  1.0000000  0.0000000 )
                  (  0.0000000  0.0000000  1.0000000 )
                  (  1.0000000  0.0000000  0.0000000 )


      isym = 18     120 deg rotation - cart. axis [-1,1,1]       

 cryst.   s(18) = (     1         -1          0      )
                  (     0         -1          1      )
                  (     0         -1          0      )

 cart.    s(18) = (  0.0000000 -1.0000000  0.0000000 )
                  (  0.0000000  0.0000000  1.0000000 )
                  ( -1.0000000  0.0000000  0.0000000 )


      isym = 19     120 deg rotation - cart. axis [1,1,-1]       

 cryst.   s(19) = (    -1          1          0      )
                  (    -1          0          0      )
                  (    -1          0          1      )

 cart.    s(19) = (  0.0000000  1.0000000  0.0000000 )
                  (  0.0000000  0.0000000 -1.0000000 )
                  ( -1.0000000  0.0000000  0.0000000 )


      isym = 20     120 deg rotation - cart. axis [1,-1,1]       

 cryst.   s(20) = (     0          0         -1      )
                  (     0          1         -1      )
                  (     1          0         -1      )

 cart.    s(20) = (  0.0000000 -1.0000000  0.0000000 )
                  (  0.0000000  0.0000000 -1.0000000 )
                  (  1.0000000  0.0000000  0.0000000 )


      isym = 21     120 deg rotation - cart. axis [1,1,1]        

 cryst.   s(21) = (     0          1          0      )
                  (     0          0          1      )
                  (     1          0          0      )

 cart.    s(21) = (  0.0000000  0.0000000  1.0000000 )
                  (  1.0000000  0.0000000  0.0000000 )
                  (  0.0000000  1.0000000  0.0000000 )


      isym = 22     120 deg rotation - cart. axis [-1,1,-1]      

 cryst.   s(22) = (    -1          0          1      )
                  (    -1          1          0      )
                  (    -1          0          0      )

 cart.    s(22) = (  0.0000000  0.0000000  1.0000000 )
                  ( -1.0000000  0.0000000  0.0000000 )
                  (  0.0000000 -1.0000000  0.0000000 )


      isym = 23     120 deg rotation - cart. axis [1,-1,-1]      

 cryst.   s(23) = (     1          0         -1      )
                  (     0          0         -1      )
                  (     0          1         -1      )

 cart.    s(23) = (  0.0000000  0.0000000 -1.0000000 )
                  ( -1.0000000  0.0000000  0.0000000 )
                  (  0.0000000  1.0000000  0.0000000 )


      isym = 24     120 deg rotation - cart. axis [-1,-1,1]      

 cryst.   s(24) = (     0         -1          0      )
                  (     1         -1          0      )
                  (     0         -1          1      )

 cart.    s(24) = (  0.0000000  0.0000000 -1.0000000 )
                  (  1.0000000  0.0000000  0.0000000 )
                  (  0.0000000 -1.0000000  0.0000000 )


      isym = 25     inversion                                    

 cryst.   s(25) = (    -1          0          0      )    f =( -0.2499998 )
                  (     0         -1          0      )       ( -0.2499998 )
                  (     0          0         -1      )       ( -0.2499998 )

 cart.    s(25) = ( -1.0000000  0.0000000  0.0000000 )    f =( -0.3535531 )
                  (  0.0000000 -1.0000000  0.0000000 )       ( -0.3535531 )
                  (  0.0000000  0.0000000 -1.0000000 )       ( -0.3535531 )


      isym = 26     inv. 180 deg rotation - cart. axis [0,0,1]   

 cryst.   s(26) = (     0         -1          1      )    f =( -0.2499998 )
                  (    -1          0          1      )       ( -0.2499998 )
                  (     0          0          1      )       ( -0.2500001 )

 cart.    s(26) = (  1.0000000  0.0000000  0.0000000 )    f =( -0.3535533 )
                  (  0.0000000  1.0000000  0.0000000 )       ( -0.3535533 )
                  (  0.0000000  0.0000000 -1.0000000 )       ( -0.3535531 )


      isym = 27     inv. 180 deg rotation - cart. axis [0,1,0]   

 cryst.   s(27) = (     0          1         -1      )    f =( -0.2499998 )
                  (     0          1          0      )       ( -0.2500001 )
                  (    -1          1          0      )       ( -0.2499998 )

 cart.    s(27) = (  1.0000000  0.0000000  0.0000000 )    f =( -0.3535533 )
                  (  0.0000000 -1.0000000  0.0000000 )       ( -0.3535531 )
                  (  0.0000000  0.0000000  1.0000000 )       ( -0.3535533 )


      isym = 28     inv. 180 deg rotation - cart. axis [1,0,0]   

 cryst.   s(28) = (     1          0          0      )    f =( -0.2500001 )
                  (     1          0         -1      )       ( -0.2499998 )
                  (     1         -1          0      )       ( -0.2499998 )

 cart.    s(28) = ( -1.0000000  0.0000000  0.0000000 )    f =( -0.3535531 )
                  (  0.0000000  1.0000000  0.0000000 )       ( -0.3535533 )
                  (  0.0000000  0.0000000  1.0000000 )       ( -0.3535533 )


      isym = 29     inv. 180 deg rotation - cart. axis [1,1,0]   

 cryst.   s(29) = (     1          0         -1      )
                  (     0          1         -1      )
                  (     0          0         -1      )

 cart.    s(29) = (  0.0000000 -1.0000000  0.0000000 )
                  ( -1.0000000  0.0000000  0.0000000 )
                  (  0.0000000  0.0000000  1.0000000 )


      isym = 30     inv. 180 deg rotation - cart. axis [1,-1,0]  

 cryst.   s(30) = (     0          1          0      )
                  (     1          0          0      )
                  (     0          0          1      )

 cart.    s(30) = (  0.0000000  1.0000000  0.0000000 )
                  (  1.0000000  0.0000000  0.0000000 )
                  (  0.0000000  0.0000000  1.0000000 )


      isym = 31     inv.  90 deg rotation - cart. axis [0,0,-1]  

 cryst.   s(31) = (     0         -1          0      )
                  (     0         -1          1      )
                  (     1         -1          0      )

 cart.    s(31) = (  0.0000000 -1.0000000  0.0000000 )
                  (  1.0000000  0.0000000  0.0000000 )
                  (  0.0000000  0.0000000 -1.0000000 )


      isym = 32     inv.  90 deg rotation - cart. axis [0,0,1]   

 cryst.   s(32) = (    -1          0          1      )
                  (    -1          0          0      )
                  (    -1          1          0      )

 cart.    s(32) = (  0.0000000  1.0000000  0.0000000 )
                  ( -1.0000000  0.0000000  0.0000000 )
                  (  0.0000000  0.0000000 -1.0000000 )


      isym = 33     inv. 180 deg rotation - cart. axis [1,0,1]   

 cryst.   s(33) = (     1         -1          0      )
                  (     0         -1          0      )
                  (     0         -1          1      )

 cart.    s(33) = (  0.0000000  0.0000000 -1.0000000 )
                  (  0.0000000  1.0000000  0.0000000 )
                  ( -1.0000000  0.0000000  0.0000000 )


      isym = 34     inv. 180 deg rotation - cart. axis [-1,0,1]  

 cryst.   s(34) = (     0          0          1      )
                  (     0          1          0      )
                  (     1          0          0      )

 cart.    s(34) = (  0.0000000  0.0000000  1.0000000 )
                  (  0.0000000  1.0000000  0.0000000 )
                  (  1.0000000  0.0000000  0.0000000 )


      isym = 35     inv.  90 deg rotation - cart. axis [0,1,0]   

 cryst.   s(35) = (     0          0         -1      )
                  (     1          0         -1      )
                  (     0          1         -1      )

 cart.    s(35) = (  0.0000000  0.0000000 -1.0000000 )
                  (  0.0000000 -1.0000000  0.0000000 )
                  (  1.0000000  0.0000000  0.0000000 )


      isym = 36     inv.  90 deg rotation - cart. axis [0,-1,0]  

 cryst.   s(36) = (    -1          1          0      )
                  (    -1          0          1      )
                  (    -1          0          0      )

 cart.    s(36) = (  0.0000000  0.0000000  1.0000000 )
                  (  0.0000000 -1.0000000  0.0000000 )
                  ( -1.0000000  0.0000000  0.0000000 )


      isym = 37     inv. 180 deg rotation - cart. axis [0,1,1]   

 cryst.   s(37) = (    -1          0          0      )
                  (    -1          1          0      )
                  (    -1          0          1      )

 cart.    s(37) = (  1.0000000  0.0000000  0.0000000 )
                  (  0.0000000  0.0000000 -1.0000000 )
                  (  0.0000000 -1.0000000  0.0000000 )


      isym = 38     inv. 180 deg rotation - cart. axis [0,1,-1]  

 cryst.   s(38) = (     1          0          0      )
                  (     0          0          1      )
                  (     0          1          0      )

 cart.    s(38) = (  1.0000000  0.0000000  0.0000000 )
                  (  0.0000000  0.0000000  1.0000000 )
                  (  0.0000000  1.0000000  0.0000000 )


      isym = 39     inv.  90 deg rotation - cart. axis [-1,0,0]  

 cryst.   s(39) = (     0          1         -1      )
                  (     0          0         -1      )
                  (     1          0         -1      )

 cart.    s(39) = ( -1.0000000  0.0000000  0.0000000 )
                  (  0.0000000  0.0000000 -1.0000000 )
                  (  0.0000000  1.0000000  0.0000000 )


      isym = 40     inv.  90 deg rotation - cart. axis [1,0,0]   

 cryst.   s(40) = (     0         -1          1      )
                  (     1         -1          0      )
                  (     0         -1          0      )

 cart.    s(40) = ( -1.0000000  0.0000000  0.0000000 )
                  (  0.0000000  0.0000000  1.0000000 )
                  (  0.0000000 -1.0000000  0.0000000 )


      isym = 41     inv. 120 deg rotation - cart. axis [-1,-1,-1]

 cryst.   s(41) = (     0          0         -1      )    f =( -0.2499998 )
                  (    -1          0          0      )       ( -0.2499998 )
                  (     0         -1          0      )       ( -0.2499998 )

 cart.    s(41) = (  0.0000000 -1.0000000  0.0000000 )    f =( -0.3535531 )
                  (  0.0000000  0.0000000 -1.0000000 )       ( -0.3535531 )
                  ( -1.0000000  0.0000000  0.0000000 )       ( -0.3535531 )


      isym = 42     inv. 120 deg rotation - cart. axis [-1,1,1]  

 cryst.   s(42) = (    -1          1          0      )    f =( -0.2499998 )
                  (     0          1         -1      )       ( -0.2500001 )
                  (     0          1          0      )       ( -0.2499998 )

 cart.    s(42) = (  0.0000000  1.0000000  0.0000000 )    f =( -0.3535533 )
                  (  0.0000000  0.0000000 -1.0000000 )       ( -0.3535531 )
                  (  1.0000000  0.0000000  0.0000000 )       ( -0.3535533 )


      isym = 43     inv. 120 deg rotation - cart. axis [1,1,-1]  

 cryst.   s(43) = (     1         -1          0      )    f =( -0.2500001 )
                  (     1          0          0      )       ( -0.2499998 )
                  (     1          0         -1      )       ( -0.2499998 )

 cart.    s(43) = (  0.0000000 -1.0000000  0.0000000 )    f =( -0.3535531 )
                  (  0.0000000  0.0000000  1.0000000 )       ( -0.3535533 )
                  (  1.0000000  0.0000000  0.0000000 )       ( -0.3535533 )


      isym = 44     inv. 120 deg rotation - cart. axis [1,-1,1]  

 cryst.   s(44) = (     0          0          1      )    f =( -0.2499998 )
                  (     0         -1          1      )       ( -0.2499998 )
                  (    -1          0          1      )       ( -0.2500001 )

 cart.    s(44) = (  0.0000000  1.0000000  0.0000000 )    f =( -0.3535533 )
                  (  0.0000000  0.0000000  1.0000000 )       ( -0.3535533 )
                  ( -1.0000000  0.0000000  0.0000000 )       ( -0.3535531 )


      isym = 45     inv. 120 deg rotation - cart. axis [1,1,1]   

 cryst.   s(45) = (     0         -1          0      )    f =( -0.2499998 )
                  (     0          0         -1      )       ( -0.2499998 )
                  (    -1          0          0      )       ( -0.2499998 )

 cart.    s(45) = (  0.0000000  0.0000000 -1.0000000 )    f =( -0.3535531 )
                  ( -1.0000000  0.0000000  0.0000000 )       ( -0.3535531 )
                  (  0.0000000 -1.0000000  0.0000000 )       ( -0.3535531 )


      isym = 46     inv. 120 deg rotation - cart. axis [-1,1,-1] 

 cryst.   s(46) = (     1          0         -1      )    f =( -0.2500001 )
                  (     1         -1          0      )       ( -0.2499998 )
                  (     1          0          0      )       ( -0.2499998 )

 cart.    s(46) = (  0.0000000  0.0000000 -1.0000000 )    f =( -0.3535531 )
                  (  1.0000000  0.0000000  0.0000000 )       ( -0.3535533 )
                  (  0.0000000  1.0000000  0.0000000 )       ( -0.3535533 )


      isym = 47     inv. 120 deg rotation - cart. axis [1,-1,-1] 

 cryst.   s(47) = (    -1          0          1      )    f =( -0.2499998 )
                  (     0          0          1      )       ( -0.2499998 )
                  (     0         -1          1      )       ( -0.2500001 )

 cart.    s(47) = (  0.0000000  0.0000000  1.0000000 )    f =( -0.3535533 )
                  (  1.0000000  0.0000000  0.0000000 )       ( -0.3535533 )
                  (  0.0000000 -1.0000000  0.0000000 )       ( -0.3535531 )


      isym = 48     inv. 120 deg rotation - cart. axis [-1,-1,1] 

 cryst.   s(48) = (     0          1          0      )    f =( -0.2499998 )
                  (    -1          1          0      )       ( -0.2500001 )
                  (     0          1         -1      )       ( -0.2499998 )

 cart.    s(48) = (  0.0000000  0.0000000  1.0000000 )    f =( -0.3535533 )
                  ( -1.0000000  0.0000000  0.0000000 )       ( -0.3535531 )
                  (  0.0000000  1.0000000  0.0000000 )       ( -0.3535533 )


     point group O_h (m-3m) 
     there are 10 classes
     the character table:

       E     8C3   3C2   6C4   6C2'  i     8S6   3s_h  6S4   6s_d 
A_1g   1.00  1.00  1.00  1.00  1.00  1.00  1.00  1.00  1.00  1.00
A_2g   1.00  1.00  1.00 -1.00 -1.00  1.00  1.00  1.00 -1.00 -1.00
E_g    2.00 -1.00  2.00  0.00  0.00  2.00 -1.00  2.00  0.00  0.00
T_1g   3.00  0.00 -1.00  1.00 -1.00  3.00  0.00 -1.00  1.00 -1.00
T_2g   3.00  0.00 -1.00 -1.00  1.00  3.00  0.00 -1.00 -1.00  1.00
A_1u   1.00  1.00  1.00  1.00  1.00 -1.00 -1.00 -1.00 -1.00 -1.00
A_2u   1.00  1.00  1.00 -1.00 -1.00 -1.00 -1.00 -1.00  1.00  1.00
E_u    2.00 -1.00  2.00  0.00  0.00 -2.00  1.00 -2.00  0.00  0.00
T_1u   3.00  0.00 -1.00  1.00 -1.00 -3.00  0.00  1.00 -1.00  1.00
T_2u   3.00  0.00 -1.00 -1.00  1.00 -3.00  0.00  1.00  1.00 -1.00

     the symmetry operations in each class and the name of the first element:

     E        1
          identity                                               
     8C3     17   19   20   18   24   21   22   23
          120 deg rotation - cart. axis [-1,-1,-1]               
     3C2      2    4    3
          180 deg rotation - cart. axis [0,0,1]                  
     6C4      7    8   15   16   12   11
           90 deg rotation - cart. axis [0,0,-1]                 
     6C2'     5    6   14   13   10    9
          180 deg rotation - cart. axis [1,1,0]                  
     i       25
          inversion                                              
     8S6     41   43   44   42   48   45   46   47
          inv. 120 deg rotation - cart. axis [-1,-1,-1]          
     3s_h    26   28   27
          inv. 180 deg rotation - cart. axis [0,0,1]             
     6S4     31   32   39   40   36   35
          inv.  90 deg rotation - cart. axis [0,0,-1]            
     6s_d    29   30   38   37   34   33
          inv. 180 deg rotation - cart. axis [1,1,0]             

   Cartesian axes

     site n.     atom                  positions (alat units)
         1        Si     tau(   1) = (   1.0606600   1.0606600   1.0606600  )
         2        Si     tau(   2) = (   0.7071067   0.7071067   0.7071067  )

   Crystallographic axes

     site n.     atom                  positions (cryst. coord.)
         1        Si     tau(   1) = (  0.7499999  0.7499999  0.7499999  )
         2        Si     tau(   2) = (  0.4999999  0.4999999  0.4999999  )

     number of k points=    86
                       cart. coord. in units 2pi/alat
        k(    1) = (   0.0000000   0.0000000   0.0000000), wk =   0.0232558
        k(    2) = (   0.0000000   0.0471405   0.0000000), wk =   0.0232558
        k(    3) = (   0.0000000   0.0942809   0.0000000), wk =   0.0232558
        k(    4) = (   0.0000000   0.1414214   0.0000000), wk =   0.0232558
        k(    5) = (   0.0000000   0.1885618   0.0000000), wk =   0.0232558
        k(    6) = (   0.0000000   0.2357023   0.0000000), wk =   0.0232558
        k(    7) = (   0.0000000   0.2828427   0.0000000), wk =   0.0232558
        k(    8) = (   0.0000000   0.3299832   0.0000000), wk =   0.0232558
        k(    9) = (   0.0000000   0.3771236   0.0000000), wk =   0.0232558
        k(   10) = (   0.0000000   0.4242641   0.0000000), wk =   0.0232558
        k(   11) = (   0.0000000   0.4714045   0.0000000), wk =   0.0232558
        k(   12) = (   0.0000000   0.5185450   0.0000000), wk =   0.0232558
        k(   13) = (   0.0000000   0.5656854   0.0000000), wk =   0.0232558
        k(   14) = (   0.0000000   0.6128259   0.0000000), wk =   0.0232558
        k(   15) = (   0.0000000   0.6599663   0.0000000), wk =   0.0232558
        k(   16) = (   0.0000000   0.7071068   0.0000000), wk =   0.0232558
        k(   17) = (   0.0176777   0.7071068   0.0176777), wk =   0.0232558
        k(   18) = (   0.0353553   0.7071068   0.0353553), wk =   0.0232558
        k(   19) = (   0.0530330   0.7071068   0.0530330), wk =   0.0232558
        k(   20) = (   0.0707107   0.7071068   0.0707107), wk =   0.0232558
        k(   21) = (   0.0883883   0.7071068   0.0883883), wk =   0.0232558
        k(   22) = (   0.1060660   0.7071068   0.1060660), wk =   0.0232558
        k(   23) = (   0.1237437   0.7071068   0.1237437), wk =   0.0232558
        k(   24) = (   0.1414214   0.7071068   0.1414214), wk =   0.0232558
        k(   25) = (   0.1590990   0.7071068   0.1590990), wk =   0.0232558
        k(   26) = (   0.1767767   0.7071068   0.1767767), wk =   0.0232558
        k(   27) = (   0.1679379   0.6717514   0.1679379), wk =   0.0232558
        k(   28) = (   0.1590990   0.6363961   0.1590990), wk =   0.0232558
        k(   29) = (   0.1502602   0.6010408   0.1502602), wk =   0.0232558
        k(   30) = (   0.1414214   0.5656854   0.1414214), wk =   0.0232558
        k(   31) = (   0.1325825   0.5303301   0.1325825), wk =   0.0232558
        k(   32) = (   0.1237437   0.4949747   0.1237437), wk =   0.0232558
        k(   33) = (   0.1149049   0.4596194   0.1149049), wk =   0.0232558
        k(   34) = (   0.1060660   0.4242641   0.1060660), wk =   0.0232558
        k(   35) = (   0.0972272   0.3889087   0.0972272), wk =   0.0232558
        k(   36) = (   0.0883883   0.3535534   0.0883883), wk =   0.0232558
        k(   37) = (   0.0795495   0.3181981   0.0795495), wk =   0.0232558
        k(   38) = (   0.0707107   0.2828427   0.0707107), wk =   0.0232558
        k(   39) = (   0.0618718   0.2474874   0.0618718), wk =   0.0232558
        k(   40) = (   0.0530330   0.2121320   0.0530330), wk =   0.0232558
        k(   41) = (   0.0441942   0.1767767   0.0441942), wk =   0.0232558
        k(   42) = (   0.0353553   0.1414214   0.0353553), wk =   0.0232558
        k(   43) = (   0.0265165   0.1060660   0.0265165), wk =   0.0232558
        k(   44) = (   0.0176777   0.0707107   0.0176777), wk =   0.0232558
        k(   45) = (   0.0088388   0.0353553   0.0088388), wk =   0.0232558
        k(   46) = (   0.0000000   0.0000000   0.0000000), wk =   0.0232558
        k(   47) = (   0.0235702   0.0235702   0.0235702), wk =   0.0232558
        k(   48) = (   0.0471405   0.0471405   0.0471405), wk =   0.0232558
        k(   49) = (   0.0707107   0.0707107   0.0707107), wk =   0.0232558
        k(   50) = (   0.0942809   0.0942809   0.0942809), wk =   0.0232558
        k(   51) = (   0.1178511   0.1178511   0.1178511), wk =   0.0232558
        k(   52) = (   0.1414214   0.1414214   0.1414214), wk =   0.0232558
        k(   53) = (   0.1649916   0.1649916   0.1649916), wk =   0.0232558
        k(   54) = (   0.1885618   0.1885618   0.1885618), wk =   0.0232558
        k(   55) = (   0.2121320   0.2121320   0.2121320), wk =   0.0232558
        k(   56) = (   0.2357023   0.2357023   0.2357023), wk =   0.0232558
        k(   57) = (   0.2592725   0.2592725   0.2592725), wk =   0.0232558
        k(   58) = (   0.2828427   0.2828427   0.2828427), wk =   0.0232558
        k(   59) = (   0.3064129   0.3064129   0.3064129), wk =   0.0232558
        k(   60) = (   0.3299832   0.3299832   0.3299832), wk =   0.0232558
        k(   61) = (   0.3535534   0.3535534   0.3535534), wk =   0.0232558
        k(   62) = (   0.3535534   0.3771236   0.3299832), wk =   0.0232558
        k(   63) = (   0.3535534   0.4006938   0.3064129), wk =   0.0232558
        k(   64) = (   0.3535534   0.4242641   0.2828427), wk =   0.0232558
        k(   65) = (   0.3535534   0.4478343   0.2592725), wk =   0.0232558
        k(   66) = (   0.3535534   0.4714045   0.2357023), wk =   0.0232558
        k(   67) = (   0.3535534   0.4949747   0.2121320), wk =   0.0232558
        k(   68) = (   0.3535534   0.5185450   0.1885618), wk =   0.0232558
        k(   69) = (   0.3535534   0.5421152   0.1649916), wk =   0.0232558
        k(   70) = (   0.3535534   0.5656854   0.1414214), wk =   0.0232558
        k(   71) = (   0.3535534   0.5892557   0.1178511), wk =   0.0232558
        k(   72) = (   0.3535534   0.6128259   0.0942809), wk =   0.0232558
        k(   73) = (   0.3535534   0.6363961   0.0707107), wk =   0.0232558
        k(   74) = (   0.3535534   0.6599663   0.0471405), wk =   0.0232558
        k(   75) = (   0.3535534   0.6835366   0.0235702), wk =   0.0232558
        k(   76) = (   0.3535534   0.7071068   0.0000000), wk =   0.0232558
        k(   77) = (   0.3181981   0.7071068   0.0000000), wk =   0.0232558
        k(   78) = (   0.2828427   0.7071068   0.0000000), wk =   0.0232558
        k(   79) = (   0.2474874   0.7071068   0.0000000), wk =   0.0232558
        k(   80) = (   0.2121320   0.7071068   0.0000000), wk =   0.0232558
        k(   81) = (   0.1767767   0.7071068   0.0000000), wk =   0.0232558
        k(   82) = (   0.1414214   0.7071068   0.0000000), wk =   0.0232558
        k(   83) = (   0.1060660   0.7071068   0.0000000), wk =   0.0232558
        k(   84) = (   0.0707107   0.7071068  -0.0000000), wk =   0.0232558
        k(   85) = (   0.0353553   0.7071068   0.0000000), wk =   0.0232558
        k(   86) = (   0.0000000   0.7071068   0.0000000), wk =   0.0232558

                       cryst. coord.
        k(    1) = (   0.0000000   0.0000000   0.0000000), wk =   0.0232558
        k(    2) = (   0.0333333   0.0000000   0.0333333), wk =   0.0232558
        k(    3) = (   0.0666667   0.0000000   0.0666667), wk =   0.0232558
        k(    4) = (   0.1000000   0.0000000   0.1000000), wk =   0.0232558
        k(    5) = (   0.1333333   0.0000000   0.1333333), wk =   0.0232558
        k(    6) = (   0.1666667   0.0000000   0.1666667), wk =   0.0232558
        k(    7) = (   0.2000000   0.0000000   0.2000000), wk =   0.0232558
        k(    8) = (   0.2333333   0.0000000   0.2333333), wk =   0.0232558
        k(    9) = (   0.2666667   0.0000000   0.2666667), wk =   0.0232558
        k(   10) = (   0.3000000   0.0000000   0.3000000), wk =   0.0232558
        k(   11) = (   0.3333333   0.0000000   0.3333333), wk =   0.0232558
        k(   12) = (   0.3666667   0.0000000   0.3666667), wk =   0.0232558
        k(   13) = (   0.4000000   0.0000000   0.4000000), wk =   0.0232558
        k(   14) = (   0.4333333   0.0000000   0.4333333), wk =   0.0232558
        k(   15) = (   0.4666667   0.0000000   0.4666667), wk =   0.0232558
        k(   16) = (   0.5000000   0.0000000   0.5000000), wk =   0.0232558
        k(   17) = (   0.5125000   0.0250000   0.5125000), wk =   0.0232558
        k(   18) = (   0.5250000   0.0500000   0.5250000), wk =   0.0232558
        k(   19) = (   0.5375000   0.0750000   0.5375000), wk =   0.0232558
        k(   20) = (   0.5500000   0.1000000   0.5500000), wk =   0.0232558
        k(   21) = (   0.5625000   0.1250000   0.5625000), wk =   0.0232558
        k(   22) = (   0.5750000   0.1500000   0.5750000), wk =   0.0232558
        k(   23) = (   0.5875000   0.1750000   0.5875000), wk =   0.0232558
        k(   24) = (   0.6000000   0.2000000   0.6000000), wk =   0.0232558
        k(   25) = (   0.6125000   0.2250000   0.6125000), wk =   0.0232558
        k(   26) = (   0.6250000   0.2500000   0.6250000), wk =   0.0232558
        k(   27) = (   0.5937500   0.2375000   0.5937500), wk =   0.0232558
        k(   28) = (   0.5625000   0.2250000   0.5625000), wk =   0.0232558
        k(   29) = (   0.5312500   0.2125000   0.5312500), wk =   0.0232558
        k(   30) = (   0.5000000   0.2000000   0.5000000), wk =   0.0232558
        k(   31) = (   0.4687500   0.1875000   0.4687500), wk =   0.0232558
        k(   32) = (   0.4375000   0.1750000   0.4375000), wk =   0.0232558
        k(   33) = (   0.4062500   0.1625000   0.4062500), wk =   0.0232558
        k(   34) = (   0.3750000   0.1500000   0.3750000), wk =   0.0232558
        k(   35) = (   0.3437500   0.1375000   0.3437500), wk =   0.0232558
        k(   36) = (   0.3125000   0.1250000   0.3125000), wk =   0.0232558
        k(   37) = (   0.2812500   0.1125000   0.2812500), wk =   0.0232558
        k(   38) = (   0.2500000   0.1000000   0.2500000), wk =   0.0232558
        k(   39) = (   0.2187500   0.0875000   0.2187500), wk =   0.0232558
        k(   40) = (   0.1875000   0.0750000   0.1875000), wk =   0.0232558
        k(   41) = (   0.1562500   0.0625000   0.1562500), wk =   0.0232558
        k(   42) = (   0.1250000   0.0500000   0.1250000), wk =   0.0232558
        k(   43) = (   0.0937500   0.0375000   0.0937500), wk =   0.0232558
        k(   44) = (   0.0625000   0.0250000   0.0625000), wk =   0.0232558
        k(   45) = (   0.0312500   0.0125000   0.0312500), wk =   0.0232558
        k(   46) = (   0.0000000   0.0000000   0.0000000), wk =   0.0232558
        k(   47) = (   0.0333333   0.0333333   0.0333333), wk =   0.0232558
        k(   48) = (   0.0666667   0.0666667   0.0666667), wk =   0.0232558
        k(   49) = (   0.1000000   0.1000000   0.1000000), wk =   0.0232558
        k(   50) = (   0.1333333   0.1333333   0.1333333), wk =   0.0232558
        k(   51) = (   0.1666667   0.1666667   0.1666667), wk =   0.0232558
        k(   52) = (   0.2000000   0.2000000   0.2000000), wk =   0.0232558
        k(   53) = (   0.2333333   0.2333333   0.2333333), wk =   0.0232558
        k(   54) = (   0.2666667   0.2666667   0.2666667), wk =   0.0232558
        k(   55) = (   0.3000000   0.3000000   0.3000000), wk =   0.0232558
        k(   56) = (   0.3333333   0.3333333   0.3333333), wk =   0.0232558
        k(   57) = (   0.3666667   0.3666667   0.3666667), wk =   0.0232558
        k(   58) = (   0.4000000   0.4000000   0.4000000), wk =   0.0232558
        k(   59) = (   0.4333333   0.4333333   0.4333333), wk =   0.0232558
        k(   60) = (   0.4666667   0.4666667   0.4666667), wk =   0.0232558
        k(   61) = (   0.5000000   0.5000000   0.5000000), wk =   0.0232558
        k(   62) = (   0.5000000   0.4833333   0.5166667), wk =   0.0232558
        k(   63) = (   0.5000000   0.4666667   0.5333333), wk =   0.0232558
        k(   64) = (   0.5000000   0.4500000   0.5500000), wk =   0.0232558
        k(   65) = (   0.5000000   0.4333333   0.5666667), wk =   0.0232558
        k(   66) = (   0.5000000   0.4166667   0.5833333), wk =   0.0232558
        k(   67) = (   0.5000000   0.4000000   0.6000000), wk =   0.0232558
        k(   68) = (   0.5000000   0.3833333   0.6166667), wk =   0.0232558
        k(   69) = (   0.5000000   0.3666667   0.6333333), wk =   0.0232558
        k(   70) = (   0.5000000   0.3500000   0.6500000), wk =   0.0232558
        k(   71) = (   0.5000000   0.3333333   0.6666667), wk =   0.0232558
        k(   72) = (   0.5000000   0.3166667   0.6833333), wk =   0.0232558
        k(   73) = (   0.5000000   0.3000000   0.7000000), wk =   0.0232558
        k(   74) = (   0.5000000   0.2833333   0.7166667), wk =   0.0232558
        k(   75) = (   0.5000000   0.2666667   0.7333333), wk =   0.0232558
        k(   76) = (   0.5000000   0.2500000   0.7500000), wk =   0.0232558
        k(   77) = (   0.5000000   0.2250000   0.7250000), wk =   0.0232558
        k(   78) = (   0.5000000   0.2000000   0.7000000), wk =   0.0232558
        k(   79) = (   0.5000000   0.1750000   0.6750000), wk =   0.0232558
        k(   80) = (   0.5000000   0.1500000   0.6500000), wk =   0.0232558
        k(   81) = (   0.5000000   0.1250000   0.6250000), wk =   0.0232558
        k(   82) = (   0.5000000   0.1000000   0.6000000), wk =   0.0232558
        k(   83) = (   0.5000000   0.0750000   0.5750000), wk =   0.0232558
        k(   84) = (   0.5000000   0.0500000   0.5500000), wk =   0.0232558
        k(   85) = (   0.5000000   0.0250000   0.5250000), wk =   0.0232558
        k(   86) = (   0.5000000   0.0000000   0.5000000), wk =   0.0232558

     Dense  grid:    12939 G-vectors     FFT dimensions: (  36,  36,  36)

     Dynamical RAM for                 wfc:       0.02 MB

     Dynamical RAM for     wfc (w. buffer):       0.02 MB

     Dynamical RAM for           str. fact:       0.02 MB

     Dynamical RAM for           local pot:       0.00 MB

     Dynamical RAM for          nlocal pot:       0.11 MB

     Dynamical RAM for                qrad:       1.14 MB

     Dynamical RAM for          rho,v,vnew:       0.22 MB

     Dynamical RAM for           G-vectors:       0.10 MB

     Dynamical RAM for          h,s,v(r/c):       0.01 MB

     Dynamical RAM for          <psi|beta>:       0.00 MB

     Dynamical RAM for                 psi:       0.05 MB

     Dynamical RAM for                hpsi:       0.05 MB

     Dynamical RAM for                spsi:       0.05 MB

     Dynamical RAM for      wfcinit/wfcrot:       0.05 MB

     Dynamical RAM for           addusdens:       4.64 MB

     Estimated static dynamical RAM per process >       1.92 MB

     Estimated max dynamical RAM per process >       6.56 MB

     Estimated total dynamical RAM >      52.47 MB

     The potential is recalculated from file :
     ./temp/silicon.save/charge-density

     Starting wfcs are    8 randomized atomic wfcs
     Checking if some PAW data can be deallocated... 

     Band Structure Calculation
     Davidson diagonalization with overlap

     Computing kpt #:     1  of    86
     total cpu time spent up to now is        0.7 secs

     Computing kpt #:     2  of    86
     total cpu time spent up to now is        0.8 secs

     Computing kpt #:     3  of    86
     total cpu time spent up to now is        0.8 secs

     Computing kpt #:     4  of    86
     total cpu time spent up to now is        0.9 secs

     Computing kpt #:     5  of    86
     total cpu time spent up to now is        1.0 secs

     Computing kpt #:     6  of    86
     total cpu time spent up to now is        1.1 secs

     Computing kpt #:     7  of    86
     total cpu time spent up to now is        1.2 secs

     Computing kpt #:     8  of    86
     total cpu time spent up to now is        1.2 secs

     Computing kpt #:     9  of    86
     total cpu time spent up to now is        1.3 secs

     Computing kpt #:    10  of    86
     total cpu time spent up to now is        1.4 secs

     Computing kpt #:    11  of    86
     total cpu time spent up to now is        1.5 secs

     Computing kpt #:    12  of    86
     total cpu time spent up to now is        1.5 secs

     Computing kpt #:    13  of    86
     total cpu time spent up to now is        1.6 secs

     Computing kpt #:    14  of    86
     total cpu time spent up to now is        1.7 secs

     Computing kpt #:    15  of    86
     total cpu time spent up to now is        1.8 secs

     Computing kpt #:    16  of    86
     total cpu time spent up to now is        1.8 secs

     Computing kpt #:    17  of    86
     total cpu time spent up to now is        1.9 secs

     Computing kpt #:    18  of    86
     total cpu time spent up to now is        2.0 secs

     Computing kpt #:    19  of    86
     total cpu time spent up to now is        2.1 secs

     Computing kpt #:    20  of    86
     total cpu time spent up to now is        2.2 secs

     Computing kpt #:    21  of    86
     total cpu time spent up to now is        2.3 secs

     Computing kpt #:    22  of    86
     total cpu time spent up to now is        2.4 secs

     Computing kpt #:    23  of    86
     total cpu time spent up to now is        2.6 secs

     Computing kpt #:    24  of    86
     total cpu time spent up to now is        2.7 secs

     Computing kpt #:    25  of    86
     total cpu time spent up to now is        2.9 secs

     Computing kpt #:    26  of    86
     total cpu time spent up to now is        3.0 secs

     Computing kpt #:    27  of    86
     total cpu time spent up to now is        3.1 secs

     Computing kpt #:    28  of    86
     total cpu time spent up to now is        3.2 secs

     Computing kpt #:    29  of    86
     total cpu time spent up to now is        3.3 secs

     Computing kpt #:    30  of    86
     total cpu time spent up to now is        3.3 secs

     Computing kpt #:    31  of    86
     total cpu time spent up to now is        3.4 secs

     Computing kpt #:    32  of    86
     total cpu time spent up to now is        3.5 secs

     Computing kpt #:    33  of    86
     total cpu time spent up to now is        3.5 secs

     Computing kpt #:    34  of    86
     total cpu time spent up to now is        3.6 secs

     Computing kpt #:    35  of    86
     total cpu time spent up to now is        3.7 secs

     Computing kpt #:    36  of    86
     total cpu time spent up to now is        3.8 secs

     Computing kpt #:    37  of    86
     total cpu time spent up to now is        3.8 secs

     Computing kpt #:    38  of    86
     total cpu time spent up to now is        3.9 secs

     Computing kpt #:    39  of    86
     total cpu time spent up to now is        4.0 secs

     Computing kpt #:    40  of    86
     total cpu time spent up to now is        4.1 secs

     Computing kpt #:    41  of    86
     total cpu time spent up to now is        4.2 secs

     Computing kpt #:    42  of    86
     total cpu time spent up to now is        4.3 secs

     Computing kpt #:    43  of    86
     total cpu time spent up to now is        4.4 secs

     Computing kpt #:    44  of    86
     total cpu time spent up to now is        4.5 secs

     Computing kpt #:    45  of    86
     total cpu time spent up to now is        4.5 secs

     Computing kpt #:    46  of    86
     total cpu time spent up to now is        4.6 secs

     Computing kpt #:    47  of    86
     total cpu time spent up to now is        4.7 secs

     Computing kpt #:    48  of    86
     total cpu time spent up to now is        4.8 secs

     Computing kpt #:    49  of    86
     total cpu time spent up to now is        4.8 secs

     Computing kpt #:    50  of    86
     total cpu time spent up to now is        4.9 secs

     Computing kpt #:    51  of    86
     total cpu time spent up to now is        5.0 secs

     Computing kpt #:    52  of    86
     total cpu time spent up to now is        5.1 secs

     Computing kpt #:    53  of    86
     total cpu time spent up to now is        5.2 secs

     Computing kpt #:    54  of    86
     total cpu time spent up to now is        5.3 secs

     Computing kpt #:    55  of    86
     total cpu time spent up to now is        5.4 secs

     Computing kpt #:    56  of    86
     total cpu time spent up to now is        5.5 secs

     Computing kpt #:    57  of    86
     total cpu time spent up to now is        5.6 secs

     Computing kpt #:    58  of    86
     total cpu time spent up to now is        5.7 secs

     Computing kpt #:    59  of    86
     total cpu time spent up to now is        5.8 secs

     Computing kpt #:    60  of    86
     total cpu time spent up to now is        5.8 secs

     Computing kpt #:    61  of    86
     total cpu time spent up to now is        5.9 secs

     Computing kpt #:    62  of    86
     total cpu time spent up to now is        6.0 secs

     Computing kpt #:    63  of    86
     total cpu time spent up to now is        6.0 secs

     Computing kpt #:    64  of    86
     total cpu time spent up to now is        6.1 secs

     Computing kpt #:    65  of    86
     total cpu time spent up to now is        6.2 secs

     Computing kpt #:    66  of    86
     total cpu time spent up to now is        6.3 secs

     Computing kpt #:    67  of    86
     total cpu time spent up to now is        6.4 secs

     Computing kpt #:    68  of    86
     total cpu time spent up to now is        6.5 secs

     Computing kpt #:    69  of    86
     total cpu time spent up to now is        6.6 secs

     Computing kpt #:    70  of    86
     total cpu time spent up to now is        6.7 secs

     Computing kpt #:    71  of    86
     total cpu time spent up to now is        6.8 secs

     Computing kpt #:    72  of    86
     total cpu time spent up to now is        6.9 secs

     Computing kpt #:    73  of    86
     total cpu time spent up to now is        7.0 secs

     Computing kpt #:    74  of    86
     total cpu time spent up to now is        7.1 secs

     Computing kpt #:    75  of    86
     total cpu time spent up to now is        7.1 secs

     Computing kpt #:    76  of    86
     total cpu time spent up to now is        7.2 secs

     Computing kpt #:    77  of    86
     total cpu time spent up to now is        7.3 secs

     Computing kpt #:    78  of    86
     total cpu time spent up to now is        7.4 secs

     Computing kpt #:    79  of    86
     total cpu time spent up to now is        7.4 secs

     Computing kpt #:    80  of    86
     total cpu time spent up to now is        7.5 secs

     Computing kpt #:    81  of    86
     total cpu time spent up to now is        7.6 secs

     Computing kpt #:    82  of    86
     total cpu time spent up to now is        7.7 secs

     Computing kpt #:    83  of    86
     total cpu time spent up to now is        7.8 secs

     Computing kpt #:    84  of    86
     total cpu time spent up to now is        7.9 secs

     Computing kpt #:    85  of    86
     total cpu time spent up to now is        7.9 secs

     Computing kpt #:    86  of    86
     total cpu time spent up to now is        8.0 secs

     ethr =  1.25E-11,  avg # of iterations = 41.4

     total cpu time spent up to now is        8.0 secs

     End of band structure calculation

          k = 0.0000 0.0000 0.0000 (  1639 PWs)   bands (ev):

    -5.8348   6.1454   6.1454   6.1454   8.6643   8.6643   8.6643   9.4371

          k = 0.0000 0.0471 0.0000 (  1639 PWs)   bands (ev):

    -5.8153   6.0138   6.0618   6.0618   8.6140   8.7717   8.7717   9.5655

          k = 0.0000 0.0943 0.0000 (  1623 PWs)   bands (ev):

    -5.7568   5.6697   5.8461   5.8461   8.4736   9.0587   9.0587   9.8886

          k = 0.0000 0.1414 0.0000 (  1599 PWs)   bands (ev):

    -5.6596   5.2009   5.5606   5.5606   8.2687   9.4623   9.4623  10.2689

          k = 0.0000 0.1886 0.0000 (  1607 PWs)   bands (ev):

    -5.5238   4.6673   5.2501   5.2501   8.0273   9.9367   9.9367  10.5016

          k = 0.0000 0.2357 0.0000 (  1623 PWs)   bands (ev):

    -5.3498   4.1002   4.9396   4.9396   7.7731  10.3634  10.4556  10.4556

          k = 0.0000 0.2828 0.0000 (  1607 PWs)   bands (ev):

    -5.1380   3.5154   4.6428   4.6428   7.5235   9.9412  11.0044  11.0044

          k = 0.0000 0.3300 0.0000 (  1616 PWs)   bands (ev):

    -4.8890   2.9213   4.3675   4.3675   7.2909   9.4317  11.5743  11.5743

          k = 0.0000 0.3771 0.0000 (  1612 PWs)   bands (ev):

    -4.6035   2.3229   4.1184   4.1184   7.0840   8.9232  12.1598  12.1598

          k = 0.0000 0.4243 0.0000 (  1620 PWs)   bands (ev):

    -4.2824   1.7242   3.8985   3.8985   6.9090   8.4493  12.7576  12.7576

          k = 0.0000 0.4714 0.0000 (  1624 PWs)   bands (ev):

    -3.9267   1.1286   3.7100   3.7100   6.7707   8.0242  13.3658  13.3658

          k = 0.0000 0.5185 0.0000 (  1624 PWs)   bands (ev):

    -3.5377   0.5395   3.5542   3.5542   6.6728   7.6540  13.9830  13.9830

          k = 0.0000 0.5657 0.0000 (  1628 PWs)   bands (ev):

    -3.1168  -0.0395   3.4321   3.4322   6.6184   7.3409  14.6069  14.6069

          k = 0.0000 0.6128 0.0000 (  1624 PWs)   bands (ev):

    -2.6658  -0.6050   3.3445   3.3445   6.6102   7.0853  15.2315  15.2315

          k = 0.0000 0.6600 0.0000 (  1608 PWs)   bands (ev):

    -2.1866  -1.1534   3.2918   3.2918   6.6506   6.8861  15.8289  15.8289

          k = 0.0000 0.7071 0.0000 (  1604 PWs)   bands (ev):

    -1.6816  -1.6816   3.2742   3.2742   6.7419   6.7419  16.1877  16.1877

          k = 0.0177 0.7071 0.0177 (  1614 PWs)   bands (ev):

    -1.6837  -1.6757   3.2353   3.2786   6.7470   6.7987  16.1269  16.1545

          k = 0.0354 0.7071 0.0354 (  1618 PWs)   bands (ev):

    -1.6904  -1.6580   3.1266   3.2918   6.7624   6.9616  15.9612  16.0592

          k = 0.0530 0.7071 0.0530 (  1618 PWs)   bands (ev):

    -1.7025  -1.6284   2.9670   3.3139   6.7879   7.2123  15.7241  15.9129

          k = 0.0707 0.7071 0.0707 (  1618 PWs)   bands (ev):

    -1.7212  -1.5871   2.7778   3.3446   6.8236   7.5307  15.4448  15.7283

          k = 0.0884 0.7071 0.0884 (  1630 PWs)   bands (ev):

    -1.7484  -1.5340   2.5771   3.3839   6.8692   7.9002  15.1424  15.5169

          k = 0.1061 0.7071 0.1061 (  1622 PWs)   bands (ev):

    -1.7863  -1.4691   2.3790   3.4318   6.9248   8.3086  14.8285  15.2875

          k = 0.1237 0.7071 0.1237 (  1622 PWs)   bands (ev):

    -1.8372  -1.3924   2.1943   3.4879   6.9901   8.7474  14.5100  15.0468

          k = 0.1414 0.7071 0.1414 (  1622 PWs)   bands (ev):

    -1.9035  -1.3041   2.0309   3.5521   7.0649   9.2102  14.1913  14.7452

          k = 0.1591 0.7071 0.1591 (  1620 PWs)   bands (ev):

    -1.9873  -1.2040   1.8947   3.6242   7.1489   9.6922  13.8751  14.4114

          k = 0.1768 0.7071 0.1768 (  1624 PWs)   bands (ev):

    -2.0895  -1.0924   1.7895   3.7039   7.2418  10.1892  13.5636  14.0879

          k = 0.1679 0.6718 0.1679 (  1624 PWs)   bands (ev):

    -2.1277  -1.0645   1.8690   3.6722   7.2075   9.9521  13.5542  13.8495

          k = 0.1591 0.6364 0.1591 (  1624 PWs)   bands (ev):

    -2.3273  -0.8800   2.0084   3.6609   7.2016   9.7456  13.3705  13.5195

          k = 0.1503 0.6010 0.1503 (  1621 PWs)   bands (ev):

    -2.6062  -0.6086   2.1942   3.6703   7.2228   9.5729  13.1448  13.1883

          k = 0.1414 0.5657 0.1414 (  1627 PWs)   bands (ev):

    -2.9136  -0.2920   2.4158   3.7008   7.2690   9.4378  12.8597  12.9120

          k = 0.1326 0.5303 0.1326 (  1625 PWs)   bands (ev):

    -3.2271   0.0536   2.6649   3.7524   7.3363   9.3452  12.5346  12.6801

          k = 0.1237 0.4950 0.1237 (  1620 PWs)   bands (ev):

    -3.5357   0.4218   2.9347   3.8252   7.4195   9.3012  12.2136  12.4494

          k = 0.1149 0.4596 0.1149 (  1626 PWs)   bands (ev):

    -3.8333   0.8093   3.2193   3.9190   7.5118   9.3125  11.8975  12.2168

          k = 0.1061 0.4243 0.1061 (  1625 PWs)   bands (ev):

    -4.1159   1.2144   3.5136   4.0336   7.6062   9.3845  11.5877  11.9770

          k = 0.0972 0.3889 0.0972 (  1616 PWs)   bands (ev):

    -4.3810   1.6359   3.8130   4.1685   7.6982   9.5179  11.2871  11.7240

          k = 0.0884 0.3536 0.0884 (  1616 PWs)   bands (ev):

    -4.6268   2.0725   4.1130   4.3231   7.7866   9.7035  11.0030  11.4517

          k = 0.0795 0.3182 0.0795 (  1619 PWs)   bands (ev):

    -4.8518   2.5232   4.4097   4.4962   7.8739   9.9092  10.7580  11.1564

          k = 0.0707 0.2828 0.0707 (  1611 PWs)   bands (ev):

    -5.0551   2.9861   4.6867   4.6991   7.9643  10.0273  10.6408  10.8377

          k = 0.0619 0.2475 0.0619 (  1607 PWs)   bands (ev):

    -5.2359   3.4592   4.8924   4.9774   8.0610   9.9226  10.4995  10.7481

          k = 0.0530 0.2121 0.0530 (  1608 PWs)   bands (ev):

    -5.3936   3.9389   5.1104   5.2402   8.1655   9.7103  10.1499  10.8776

          k = 0.0442 0.1768 0.0442 (  1604 PWs)   bands (ev):

    -5.5278   4.4200   5.3362   5.4828   8.2763   9.4815   9.7999  10.8035

          k = 0.0354 0.1414 0.0354 (  1609 PWs)   bands (ev):

    -5.6379   4.8936   5.5627   5.6993   8.3889   9.2605   9.4629  10.5024

          k = 0.0265 0.1061 0.0265 (  1610 PWs)   bands (ev):

    -5.7239   5.3439   5.7784   5.8826   8.4951   9.0556   9.1557  10.1172

          k = 0.0177 0.0707 0.0177 (  1631 PWs)   bands (ev):

    -5.7855   5.7416   5.9652   6.0241   8.5839   8.8718   8.9007   9.7640

          k = 0.0088 0.0354 0.0088 (  1639 PWs)   bands (ev):

    -5.8224   6.0338   6.0970   6.1143   8.6433   8.7254   8.7269   9.5218

          k = 0.0000 0.0000 0.0000 (  1639 PWs)   bands (ev):

    -5.8348   6.1454   6.1454   6.1454   8.6643   8.6643   8.6643   9.4371

          k = 0.0236 0.0236 0.0236 (  1639 PWs)   bands (ev):

    -5.8202   5.9738   6.1199   6.1199   8.7014   8.7014   8.7022   9.5431

          k = 0.0471 0.0471 0.0471 (  1630 PWs)   bands (ev):

    -5.7764   5.5450   6.0487   6.0487   8.7201   8.8057   8.8057   9.8748

          k = 0.0707 0.0707 0.0707 (  1606 PWs)   bands (ev):

    -5.7036   4.9876   5.9445   5.9445   8.6619   8.9589   8.9589  10.3694

          k = 0.0943 0.0943 0.0943 (  1606 PWs)   bands (ev):

    -5.6023   4.3760   5.8213   5.8213   8.5562   9.1372   9.1372  10.9367

          k = 0.1179 0.1179 0.1179 (  1609 PWs)   bands (ev):

    -5.4728   3.7458   5.6908   5.6908   8.4287   9.3148   9.3148  11.5282

          k = 0.1414 0.1414 0.1414 (  1606 PWs)   bands (ev):

    -5.3162   3.1157   5.5613   5.5613   8.2942   9.4665   9.4665  12.1206

          k = 0.1650 0.1650 0.1650 (  1612 PWs)   bands (ev):

    -5.1336   2.4968   5.4384   5.4384   8.1622   9.5725   9.5725  12.6980

          k = 0.1886 0.1886 0.1886 (  1624 PWs)   bands (ev):

    -4.9269   1.8970   5.3258   5.3258   8.0385   9.6243   9.6243  13.2348

          k = 0.2121 0.2121 0.2121 (  1624 PWs)   bands (ev):

    -4.6988   1.3231   5.2259   5.2259   7.9269   9.6278   9.6278  13.6602

          k = 0.2357 0.2357 0.2357 (  1616 PWs)   bands (ev):

    -4.4537   0.7820   5.1401   5.1401   7.8298   9.5979   9.5979  13.8533

          k = 0.2593 0.2593 0.2593 (  1619 PWs)   bands (ev):

    -4.1990   0.2830   5.0693   5.0693   7.7490   9.5512   9.5512  13.8511

          k = 0.2828 0.2828 0.2828 (  1616 PWs)   bands (ev):

    -3.9472  -0.1599   5.0139   5.0139   7.6854   9.5019   9.5019  13.7878

          k = 0.3064 0.3064 0.3064 (  1616 PWs)   bands (ev):

    -3.7202  -0.5241   4.9742   4.9742   7.6396   9.4603   9.4603  13.7244

          k = 0.3300 0.3300 0.3300 (  1616 PWs)   bands (ev):

    -3.5533  -0.7735   4.9504   4.9504   7.6120   9.4329   9.4329  13.6815

          k = 0.3536 0.3536 0.3536 (  1622 PWs)   bands (ev):

    -3.4903  -0.8641   4.9425   4.9425   7.6028   9.4234   9.4234  13.6666

          k = 0.3536 0.3771 0.3300 (  1612 PWs)   bands (ev):

    -3.4805  -0.8587   4.8486   4.9239   7.6891   9.4048   9.4622  13.7140

          k = 0.3536 0.4007 0.3064 (  1614 PWs)   bands (ev):

    -3.4514  -0.8430   4.6026   4.8681   7.9065   9.3553   9.5852  13.8426

          k = 0.3536 0.4243 0.2828 (  1612 PWs)   bands (ev):

    -3.4028  -0.8180   4.2696   4.7755   8.1748   9.2898   9.8079  14.0088

          k = 0.3536 0.4478 0.2593 (  1614 PWs)   bands (ev):

    -3.3351  -0.7853   3.8991   4.6471   8.4333   9.2258  10.1428  14.1303

          k = 0.3536 0.4714 0.2357 (  1614 PWs)   bands (ev):

    -3.2485  -0.7481   3.5212   4.4854   8.6600   9.1784  10.5839  14.1066

          k = 0.3536 0.4950 0.2121 (  1608 PWs)   bands (ev):

    -3.1432  -0.7105   3.1551   4.2942   8.8610   9.1578  11.1090  13.8558

          k = 0.3536 0.5185 0.1886 (  1614 PWs)   bands (ev):

    -3.0197  -0.6788   2.8154   4.0788   9.0499   9.1696  11.6942  13.4017

          k = 0.3536 0.5421 0.1650 (  1620 PWs)   bands (ev):

    -2.8786  -0.6616   2.5157   3.8455   9.2161   9.2377  12.3210  12.9677

          k = 0.3536 0.5657 0.1414 (  1614 PWs)   bands (ev):

    -2.7207  -0.6695   2.2695   3.6007   9.2968   9.4312  12.5549  12.9476

          k = 0.3536 0.5893 0.1179 (  1610 PWs)   bands (ev):

    -2.5469  -0.7134   2.0897   3.3510   9.4103   9.6334  12.1649  12.5975

          k = 0.3536 0.6128 0.0943 (  1612 PWs)   bands (ev):

    -2.3588  -0.8011   1.9851   3.1025   9.5543   9.8451  11.8001  12.2540

          k = 0.3536 0.6364 0.0707 (  1618 PWs)   bands (ev):

    -2.1581  -0.9335   1.9569   2.8613   9.7257  10.0624  11.4661  11.9224

          k = 0.3536 0.6600 0.0471 (  1622 PWs)   bands (ev):

    -1.9474  -1.1035   1.9984   2.6334   9.9202  10.2697  11.1801  11.6079

          k = 0.3536 0.6835 0.0236 (  1622 PWs)   bands (ev):

    -1.7305  -1.3003   2.0980   2.4252  10.1289  10.3990  11.0108  11.3196

          k = 0.3536 0.7071 0.0000 (  1628 PWs)   bands (ev):

    -1.5125  -1.5124   2.2438   2.2438  10.3236  10.3236  11.0855  11.0855

          k = 0.3182 0.7071 0.0000 (  1616 PWs)   bands (ev):

    -1.5170  -1.5170   2.2639   2.2639  10.0043  10.0043  11.4262  11.4262

          k = 0.2828 0.7071 0.0000 (  1626 PWs)   bands (ev):

    -1.5302  -1.5302   2.3231   2.3231   9.4909   9.4909  12.0037  12.0037

          k = 0.2475 0.7071 0.0000 (  1622 PWs)   bands (ev):

    -1.5502  -1.5502   2.4180   2.4180   8.9733   8.9733  12.6284  12.6284

          k = 0.2121 0.7071 0.0000 (  1622 PWs)   bands (ev):

    -1.5748  -1.5748   2.5430   2.5430   8.4795   8.4795  13.2730  13.2730

          k = 0.1768 0.7071 0.0000 (  1626 PWs)   bands (ev):

    -1.6013  -1.6013   2.6906   2.6906   8.0214   8.0214  13.9258  13.9258

          k = 0.1414 0.7071 0.0000 (  1624 PWs)   bands (ev):

    -1.6269  -1.6269   2.8500   2.8500   7.6096   7.6096  14.5744  14.5744

          k = 0.1061 0.7071 0.0000 (  1624 PWs)   bands (ev):

    -1.6494  -1.6494   3.0074   3.0074   7.2573   7.2573  15.1961  15.1961

          k = 0.0707 0.7071-0.0000 (  1624 PWs)   bands (ev):

    -1.6668  -1.6668   3.1444   3.1444   6.9819   6.9819  15.7364  15.7364

          k = 0.0354 0.7071 0.0000 (  1620 PWs)   bands (ev):

    -1.6778  -1.6778   3.2397   3.2397   6.8038   6.8038  16.0844  16.0844

          k = 0.0000 0.7071 0.0000 (  1604 PWs)   bands (ev):

    -1.6816  -1.6816   3.2742   3.2742   6.7419   6.7419  16.1877  16.1877

     Writing all to output data dir ./temp/silicon.save/ :
     XML data file, pseudopotentials, collected wavefunctions

     init_run     :      0.27s CPU      0.33s WALL (       1 calls)
     electrons    :      6.82s CPU      7.45s WALL (       1 calls)

     Called by init_run:
     wfcinit      :      0.00s CPU      0.00s WALL (       1 calls)
     wfcinit:atom :      0.00s CPU      0.00s WALL (      86 calls)
     wfcinit:wfcr :      0.19s CPU      0.22s WALL (      86 calls)
     potinit      :      0.06s CPU      0.08s WALL (       1 calls)
     hinit0       :      0.17s CPU      0.19s WALL (       1 calls)

     Called by electrons:
     c_bands      :      6.82s CPU      7.44s WALL (       1 calls)
     v_of_rho     :      0.00s CPU      0.00s WALL (       1 calls)
     v_h          :      0.00s CPU      0.00s WALL (       1 calls)
     v_xc         :      0.00s CPU      0.00s WALL (       1 calls)
     newd         :      0.01s CPU      0.01s WALL (       1 calls)
     PAW_pot      :      0.06s CPU      0.07s WALL (       1 calls)

     Called by c_bands:
     init_us_2    :      0.01s CPU      0.01s WALL (      86 calls)
     cegterg      :      6.56s CPU      7.12s WALL (     221 calls)

     Called by sum_band:

     Called by *egterg:
     cdiaghg      :      0.44s CPU      0.47s WALL (    3647 calls)
     cegterg:over :      0.48s CPU      0.53s WALL (    3561 calls)
     cegterg:upda :      0.14s CPU      0.16s WALL (    3561 calls)
     cegterg:last :      0.37s CPU      0.40s WALL (    2354 calls)
     h_psi        :      4.72s CPU      5.11s WALL (    3868 calls)
     s_psi        :      0.36s CPU      0.38s WALL (    3868 calls)
     g_psi        :      0.02s CPU      0.02s WALL (    3561 calls)

     Called by h_psi:
     h_psi:calbec :      0.48s CPU      0.51s WALL (    3868 calls)
     vloc_psi     :      3.85s CPU      4.18s WALL (    3868 calls)
     add_vuspsi   :      0.36s CPU      0.38s WALL (    3868 calls)

     General routines
     calbec       :      0.47s CPU      0.50s WALL (    3868 calls)
     fft          :      0.12s CPU      0.12s WALL (      12 calls)
     fftw         :      3.48s CPU      3.79s WALL (   40022 calls)
     davcio       :      0.00s CPU      0.01s WALL (     172 calls)

     Parallel routines

     PAW routines
     PAW_pot      :      0.06s CPU      0.07s WALL (       1 calls)

     PWSCF        :      7.43s CPU      8.20s WALL


   This run was terminated on:   7: 8:45  22Dec2024            

=------------------------------------------------------------------------------=
   JOB DONE.
=------------------------------------------------------------------------------=
