
     Program BANDS v.7.3.1 starts on 22Dec2024 at  7:10:35 

     This program is part of the open-source Quantum ESPRESSO suite
     for quantum simulation of materials; please cite
         "P. Giannozzi et al., J. Phys.:Condens. Matter 21 395502 (2009);
         "P. Giannozzi et al., J. Phys.:Condens. Matter 29 465901 (2017);
         "P. Giannozzi et al., J. Chem. Phys. 152 154105 (2020);
          URL http://www.quantum-espresso.org", 
     in publications or presentations arising from this work. More details at
     http://www.quantum-espresso.org/quote

     Parallel version (MPI), running on     8 processors

     MPI processes distributed on     1 nodes
     R & G space division:  proc/nbgrp/npool/nimage =       8
     10431 MiB available memory on the printing compute node when the environment starts


     Reading xml data from directory:

     ./temp/silicon.save/
     file Si.pbesol-n-kjpaw_psl.1.0.0.UPF: wavefunction(s)  3S 3P renormalized

     IMPORTANT: XC functional enforced from input :
     Exchange-correlation= PBESOL
                           (   1   4  10   8   0   0   0)
     Any further DFT definition will be discarded
     Please, verify this is what you really want


     Parallelization info
     --------------------
     sticks:   dense  smooth     PW     G-vecs:    dense   smooth      PW
     Min          91      91     26                 1617     1617     263
     Max          92      92     27                 1618     1618     266
     Sum         733     733    211                12939    12939    2109

     Using Slab Decomposition

     Reading collected, re-writing distributed wavefunctions
     high-symmetry point:  0.0000 0.0000 0.0000   x coordinate   0.0000
     high-symmetry point:  0.0000 0.7071 0.0000   x coordinate   0.7071
     high-symmetry point:  0.1768 0.7071 0.1768   x coordinate   0.9571
     high-symmetry point:  0.0000 0.0000 0.0000   x coordinate   1.7071
     high-symmetry point:  0.3536 0.3536 0.3536   x coordinate   2.3195
     high-symmetry point:  0.3536 0.7071 0.0000   x coordinate   2.8195
     high-symmetry point:  0.0000 0.7071 0.0000   x coordinate   3.1730

     Plottable bands (eV) written to file bands_pp.dat.gnu
     Bands written to file bands_pp.dat

 **************************************************************************

                    xk=(   0.00000,   0.00000,   0.00000  )

     point group O_h (m-3m) 
     there are 10 classes
     the character table:

       E     8C3   3C2   6C4   6C2'  i     8S6   3s_h  6S4   6s_d 
A_1g   1.00  1.00  1.00  1.00  1.00  1.00  1.00  1.00  1.00  1.00
A_2g   1.00  1.00  1.00 -1.00 -1.00  1.00  1.00  1.00 -1.00 -1.00
E_g    2.00 -1.00  2.00  0.00  0.00  2.00 -1.00  2.00  0.00  0.00
T_1g   3.00  0.00 -1.00  1.00 -1.00  3.00  0.00 -1.00  1.00 -1.00
T_2g   3.00  0.00 -1.00 -1.00  1.00  3.00  0.00 -1.00 -1.00  1.00
A_1u   1.00  1.00  1.00  1.00  1.00 -1.00 -1.00 -1.00 -1.00 -1.00
A_2u   1.00  1.00  1.00 -1.00 -1.00 -1.00 -1.00 -1.00  1.00  1.00
E_u    2.00 -1.00  2.00  0.00  0.00 -2.00  1.00 -2.00  0.00  0.00
T_1u   3.00  0.00 -1.00  1.00 -1.00 -3.00  0.00  1.00 -1.00  1.00
T_2u   3.00  0.00 -1.00 -1.00  1.00 -3.00  0.00  1.00  1.00 -1.00

     the symmetry operations in each class and the name of the first element:

     E        1
                                                                 
     8C3     17   19   20   18   24   21   22   23
                                                                 
     3C2      2    4    3
                                                                 
     6C4      7    8   15   16   12   11
                                                                 
     6C2'     5    6   14   13   10    9
                                                                 
     i       25
                                                                 
     8S6     41   43   44   42   48   45   46   47
                                                                 
     3s_h    26   28   27
                                                                 
     6S4     31   32   39   40   36   35
                                                                 
     6s_d    29   30   38   37   34   33
                                                                 

     Band symmetry, O_h (m-3m)  point group:

     e(  1 -  1) =     -5.83478  eV     1   --> A_1g G_1   G_1+
     e(  2 -  4) =      6.14540  eV     3   --> T_2g G_25' G_5+
     e(  5 -  7) =      8.66430  eV     3   --> T_1u G_15  G_4-
     e(  8 -  8) =      9.43713  eV     1   --> A_2u G_2'  G_2-

 **************************************************************************

 **************************************************************************

                    xk=(   0.00000,   0.04714,   0.00000  )

     point group C_4v (4mm) 
     there are  5 classes
     the character table:

       E     2C4   C2    2s_v  2s_d 
A_1    1.00  1.00  1.00  1.00  1.00
A_2    1.00  1.00  1.00 -1.00 -1.00
B_1    1.00 -1.00  1.00  1.00 -1.00
B_2    1.00 -1.00  1.00 -1.00  1.00
E      2.00  0.00 -2.00  0.00  0.00

     the symmetry operations in each class and the name of the first element:

     E        1
                                                                 
     2C4      3    4
                                                                 
     C2       2
                                                                 
     2s_v     5    6
                                                                 
     2s_d     7    8
                                                                 

     Band symmetry, C_4v (4mm)  point group:

     e(  1 -  1) =     -5.81529  eV     1   --> A_1  G_1 D_1   
     e(  2 -  2) =      6.01377  eV     1   --> B_2  G_4 D_2'  
     e(  3 -  4) =      6.06183  eV     2   --> E    G_5 D_5   
     e(  5 -  5) =      8.61396  eV     1   --> A_1  G_1 D_1   
     e(  6 -  7) =      8.77169  eV     2   --> E    G_5 D_5   
     e(  8 -  8) =      9.56553  eV     1   --> B_2  G_4 D_2'  

 **************************************************************************

 **************************************************************************

                    xk=(   0.00000,   0.09428,   0.00000  )

     Band symmetry, C_4v (4mm)  point group:

     e(  1 -  1) =     -5.75685  eV     1   --> A_1  G_1 D_1   
     e(  2 -  2) =      5.66966  eV     1   --> B_2  G_4 D_2'  
     e(  3 -  4) =      5.84611  eV     2   --> E    G_5 D_5   
     e(  5 -  5) =      8.47361  eV     1   --> A_1  G_1 D_1   
     e(  6 -  7) =      9.05868  eV     2   --> E    G_5 D_5   
     e(  8 -  8) =      9.88857  eV     1   --> B_2  G_4 D_2'  

 **************************************************************************

 **************************************************************************

                    xk=(   0.00000,   0.14142,   0.00000  )

     Band symmetry, C_4v (4mm)  point group:

     e(  1 -  1) =     -5.65961  eV     1   --> A_1  G_1 D_1   
     e(  2 -  2) =      5.20085  eV     1   --> B_2  G_4 D_2'  
     e(  3 -  4) =      5.56058  eV     2   --> E    G_5 D_5   
     e(  5 -  5) =      8.26866  eV     1   --> A_1  G_1 D_1   
     e(  6 -  7) =      9.46228  eV     2   --> E    G_5 D_5   
     e(  8 -  8) =     10.26886  eV     1   --> B_2  G_4 D_2'  

 **************************************************************************

 **************************************************************************

                    xk=(   0.00000,   0.18856,   0.00000  )

     Band symmetry, C_4v (4mm)  point group:

     e(  1 -  1) =     -5.52380  eV     1   --> A_1  G_1 D_1   
     e(  2 -  2) =      4.66727  eV     1   --> B_2  G_4 D_2'  
     e(  3 -  4) =      5.25006  eV     2   --> E    G_5 D_5   
     e(  5 -  5) =      8.02728  eV     1   --> A_1  G_1 D_1   
     e(  6 -  7) =      9.93666  eV     2   --> E    G_5 D_5   
     e(  8 -  8) =     10.50161  eV     1   --> B_2  G_4 D_2'  

 **************************************************************************

 **************************************************************************

                    xk=(   0.00000,   0.23570,   0.00000  )

     Band symmetry, C_4v (4mm)  point group:

     e(  1 -  1) =     -5.34977  eV     1   --> A_1  G_1 D_1   
     e(  2 -  2) =      4.10021  eV     1   --> B_2  G_4 D_2'  
     e(  3 -  4) =      4.93960  eV     2   --> E    G_5 D_5   
     e(  5 -  5) =      7.77308  eV     1   --> A_1  G_1 D_1   
     e(  6 -  6) =     10.36336  eV     1   --> B_2  G_4 D_2'  
     e(  7 -  8) =     10.45563  eV     2   --> E    G_5 D_5   

 **************************************************************************

 **************************************************************************

                    xk=(   0.00000,   0.28284,   0.00000  )

     Band symmetry, C_4v (4mm)  point group:

     e(  1 -  1) =     -5.13797  eV     1   --> A_1  G_1 D_1   
     e(  2 -  2) =      3.51542  eV     1   --> B_2  G_4 D_2'  
     e(  3 -  4) =      4.64282  eV     2   --> E    G_5 D_5   
     e(  5 -  5) =      7.52352  eV     1   --> A_1  G_1 D_1   
     e(  6 -  6) =      9.94123  eV     1   --> B_2  G_4 D_2'  
     e(  7 -  8) =     11.00443  eV     2   --> E    G_5 D_5   

 **************************************************************************

 **************************************************************************

                    xk=(   0.00000,   0.32998,   0.00000  )

     Band symmetry, C_4v (4mm)  point group:

     e(  1 -  1) =     -4.88897  eV     1   --> A_1  G_1 D_1   
     e(  2 -  2) =      2.92128  eV     1   --> B_2  G_4 D_2'  
     e(  3 -  4) =      4.36749  eV     2   --> E    G_5 D_5   
     e(  5 -  5) =      7.29091  eV     1   --> A_1  G_1 D_1   
     e(  6 -  6) =      9.43167  eV     1   --> B_2  G_4 D_2'  
     e(  7 -  8) =     11.57427  eV     2   --> E    G_5 D_5   

 **************************************************************************

 **************************************************************************

                    xk=(   0.00000,   0.37712,   0.00000  )

     Band symmetry, C_4v (4mm)  point group:

     e(  1 -  1) =     -4.60348  eV     1   --> A_1  G_1 D_1   
     e(  2 -  2) =      2.32295  eV     1   --> B_2  G_4 D_2'  
     e(  3 -  4) =      4.11838  eV     2   --> E    G_5 D_5   
     e(  5 -  5) =      7.08397  eV     1   --> A_1  G_1 D_1   
     e(  6 -  6) =      8.92320  eV     1   --> B_2  G_4 D_2'  
     e(  7 -  8) =     12.15976  eV     2   --> E    G_5 D_5   

 **************************************************************************

 **************************************************************************

                    xk=(   0.00000,   0.42426,   0.00000  )

     Band symmetry, C_4v (4mm)  point group:

     e(  1 -  1) =     -4.28238  eV     1   --> A_1  G_1 D_1   
     e(  2 -  2) =      1.72424  eV     1   --> B_2  G_4 D_2'  
     e(  3 -  4) =      3.89853  eV     2   --> E    G_5 D_5   
     e(  5 -  5) =      6.90899  eV     1   --> A_1  G_1 D_1   
     e(  6 -  6) =      8.44935  eV     1   --> B_2  G_4 D_2'  
     e(  7 -  8) =     12.75761  eV     2   --> E    G_5 D_5   

 **************************************************************************

 **************************************************************************

                    xk=(   0.00000,   0.47140,   0.00000  )

     Band symmetry, C_4v (4mm)  point group:

     e(  1 -  1) =     -3.92670  eV     1   --> A_1  G_1 D_1   
     e(  2 -  2) =      1.12860  eV     1   --> B_2  G_4 D_2'  
     e(  3 -  4) =      3.70999  eV     2   --> E    G_5 D_5   
     e(  5 -  5) =      6.77071  eV     1   --> A_1  G_1 D_1   
     e(  6 -  6) =      8.02422  eV     1   --> B_2  G_4 D_2'  
     e(  7 -  8) =     13.36583  eV     2   --> E    G_5 D_5   

 **************************************************************************

 **************************************************************************

                    xk=(   0.00000,   0.51854,   0.00000  )

     Band symmetry, C_4v (4mm)  point group:

     e(  1 -  1) =     -3.53769  eV     1   --> A_1  G_1 D_1   
     e(  2 -  2) =      0.53950  eV     1   --> B_2  G_4 D_2'  
     e(  3 -  4) =      3.55420  eV     2   --> E    G_5 D_5   
     e(  5 -  5) =      6.67283  eV     1   --> A_1  G_1 D_1   
     e(  6 -  6) =      7.65398  eV     1   --> B_2  G_4 D_2'  
     e(  7 -  8) =     13.98298  eV     2   --> E    G_5 D_5   

 **************************************************************************

 **************************************************************************

                    xk=(   0.00000,   0.56569,   0.00000  )

     Band symmetry, C_4v (4mm)  point group:

     e(  1 -  1) =     -3.11680  eV     1   --> A_1  G_1 D_1   
     e(  2 -  2) =     -0.03953  eV     1   --> B_2  G_4 D_2'  
     e(  3 -  4) =      3.43215  eV     2   --> E    G_5 D_5   
     e(  5 -  5) =      6.61844  eV     1   --> A_1  G_1 D_1   
     e(  6 -  6) =      7.34093  eV     1   --> B_2  G_4 D_2'  
     e(  7 -  8) =     14.60692  eV     2   --> E    G_5 D_5   

 **************************************************************************

 **************************************************************************

                    xk=(   0.00000,   0.61283,   0.00000  )

     Band symmetry, C_4v (4mm)  point group:

     e(  1 -  1) =     -2.66577  eV     1   --> A_1  G_1 D_1   
     e(  2 -  2) =     -0.60498  eV     1   --> B_2  G_4 D_2'  
     e(  3 -  4) =      3.34453  eV     2   --> E    G_5 D_5   
     e(  5 -  5) =      6.61022  eV     1   --> A_1  G_1 D_1   
     e(  6 -  6) =      7.08529  eV     1   --> B_2  G_4 D_2'  
     e(  7 -  8) =     15.23145  eV     2   --> E    G_5 D_5   

 **************************************************************************

 **************************************************************************

                    xk=(   0.00000,   0.65997,   0.00000  )

     Band symmetry, C_4v (4mm)  point group:

     e(  1 -  1) =     -2.18659  eV     1   --> A_1  G_1 D_1   
     e(  2 -  2) =     -1.15341  eV     1   --> B_2  G_4 D_2'  
     e(  3 -  4) =      3.29179  eV     2   --> E    G_5 D_5   
     e(  5 -  5) =      6.65062  eV     1   --> A_1  G_1 D_1   
     e(  6 -  6) =      6.88613  eV     1   --> B_2  G_4 D_2'  
     e(  7 -  8) =     15.82889  eV     2   --> E    G_5 D_5   

 **************************************************************************

 **************************************************************************

                    xk=(   0.00000,   0.70711,   0.00000  )

     zone border point and non-symmorphic group 
     symmetry decomposition not available

 **************************************************************************

 **************************************************************************

                    xk=(   0.01768,   0.70711,   0.01768  )

     zone border point and non-symmorphic group 
     symmetry decomposition not available

 **************************************************************************

 **************************************************************************

                    xk=(   0.03536,   0.70711,   0.03536  )

     zone border point and non-symmorphic group 
     symmetry decomposition not available

 **************************************************************************

 **************************************************************************

                    xk=(   0.05303,   0.70711,   0.05303  )

     zone border point and non-symmorphic group 
     symmetry decomposition not available

 **************************************************************************

 **************************************************************************

                    xk=(   0.07071,   0.70711,   0.07071  )

     zone border point and non-symmorphic group 
     symmetry decomposition not available

 **************************************************************************

 **************************************************************************

                    xk=(   0.08839,   0.70711,   0.08839  )

     zone border point and non-symmorphic group 
     symmetry decomposition not available

 **************************************************************************

 **************************************************************************

                    xk=(   0.10607,   0.70711,   0.10607  )

     zone border point and non-symmorphic group 
     symmetry decomposition not available

 **************************************************************************

 **************************************************************************

                    xk=(   0.12374,   0.70711,   0.12374  )

     zone border point and non-symmorphic group 
     symmetry decomposition not available

 **************************************************************************

 **************************************************************************

                    xk=(   0.14142,   0.70711,   0.14142  )

     zone border point and non-symmorphic group 
     symmetry decomposition not available

 **************************************************************************

 **************************************************************************

                    xk=(   0.15910,   0.70711,   0.15910  )

     zone border point and non-symmorphic group 
     symmetry decomposition not available

 **************************************************************************

 **************************************************************************

                    xk=(   0.17678,   0.70711,   0.17678  )

     zone border point and non-symmorphic group 
     symmetry decomposition not available

 **************************************************************************

 **************************************************************************

                    xk=(   0.16794,   0.67175,   0.16794  )

     point group C_s (m)    
     there are  2 classes
     the character table:

       E     s    
A'     1.00  1.00
A''    1.00 -1.00

     the symmetry operations in each class and the name of the first element:

     E        1
                                                                 
     s        2
                                                                 

     Band symmetry, C_s (m)     point group:

     e(  1 -  1) =     -2.12769  eV     1   --> A'             
     e(  2 -  2) =     -1.06448  eV     1   --> A'             
     e(  3 -  3) =      1.86900  eV     1   --> A'             
     e(  4 -  4) =      3.67222  eV     1   --> A''            
     e(  5 -  5) =      7.20751  eV     1   --> A'             
     e(  6 -  6) =      9.95206  eV     1   --> A'             
     e(  7 -  7) =     13.55423  eV     1   --> A''            
     e(  8 -  8) =     13.84946  eV     1   --> A'             

 **************************************************************************

 **************************************************************************

                    xk=(   0.15910,   0.63640,   0.15910  )

     Band symmetry, C_s (m)     point group:

     e(  1 -  1) =     -2.32730  eV     1   --> A'             
     e(  2 -  2) =     -0.87998  eV     1   --> A'             
     e(  3 -  3) =      2.00841  eV     1   --> A'             
     e(  4 -  4) =      3.66087  eV     1   --> A''            
     e(  5 -  5) =      7.20157  eV     1   --> A'             
     e(  6 -  6) =      9.74557  eV     1   --> A'             
     e(  7 -  7) =     13.37048  eV     1   --> A''            
     e(  8 -  8) =     13.51945  eV     1   --> A'             

 **************************************************************************

 **************************************************************************

                    xk=(   0.15026,   0.60104,   0.15026  )

     Band symmetry, C_s (m)     point group:

     e(  1 -  1) =     -2.60620  eV     1   --> A'             
     e(  2 -  2) =     -0.60858  eV     1   --> A'             
     e(  3 -  3) =      2.19422  eV     1   --> A'             
     e(  4 -  4) =      3.67029  eV     1   --> A''            
     e(  5 -  5) =      7.22281  eV     1   --> A'             
     e(  6 -  6) =      9.57288  eV     1   --> A'             
     e(  7 -  7) =     13.14476  eV     1   --> A''            
     e(  8 -  8) =     13.18830  eV     1   --> A'             

 **************************************************************************

 **************************************************************************

                    xk=(   0.14142,   0.56569,   0.14142  )

     Band symmetry, C_s (m)     point group:

     e(  1 -  1) =     -2.91360  eV     1   --> A'             
     e(  2 -  2) =     -0.29201  eV     1   --> A'             
     e(  3 -  3) =      2.41584  eV     1   --> A'             
     e(  4 -  4) =      3.70075  eV     1   --> A''            
     e(  5 -  5) =      7.26898  eV     1   --> A'             
     e(  6 -  6) =      9.43779  eV     1   --> A'             
     e(  7 -  7) =     12.85969  eV     1   --> A'             
     e(  8 -  8) =     12.91196  eV     1   --> A''            

 **************************************************************************

 **************************************************************************

                    xk=(   0.13258,   0.53033,   0.13258  )

     Band symmetry, C_s (m)     point group:

     e(  1 -  1) =     -3.22710  eV     1   --> A'             
     e(  2 -  2) =      0.05364  eV     1   --> A'             
     e(  3 -  3) =      2.66494  eV     1   --> A'             
     e(  4 -  4) =      3.75239  eV     1   --> A''            
     e(  5 -  5) =      7.33634  eV     1   --> A'             
     e(  6 -  6) =      9.34522  eV     1   --> A'             
     e(  7 -  7) =     12.53461  eV     1   --> A'             
     e(  8 -  8) =     12.68011  eV     1   --> A''            

 **************************************************************************

 **************************************************************************

                    xk=(   0.12374,   0.49497,   0.12374  )

     Band symmetry, C_s (m)     point group:

     e(  1 -  1) =     -3.53573  eV     1   --> A'             
     e(  2 -  2) =      0.42180  eV     1   --> A'             
     e(  3 -  3) =      2.93472  eV     1   --> A'             
     e(  4 -  4) =      3.82520  eV     1   --> A''            
     e(  5 -  5) =      7.41953  eV     1   --> A'             
     e(  6 -  6) =      9.30123  eV     1   --> A'             
     e(  7 -  7) =     12.21364  eV     1   --> A'             
     e(  8 -  8) =     12.44945  eV     1   --> A''            

 **************************************************************************

 **************************************************************************

                    xk=(   0.11490,   0.45962,   0.11490  )

     Band symmetry, C_s (m)     point group:

     e(  1 -  1) =     -3.83329  eV     1   --> A'             
     e(  2 -  2) =      0.80932  eV     1   --> A'             
     e(  3 -  3) =      3.21933  eV     1   --> A'             
     e(  4 -  4) =      3.91904  eV     1   --> A''            
     e(  5 -  5) =      7.51177  eV     1   --> A'             
     e(  6 -  6) =      9.31253  eV     1   --> A'             
     e(  7 -  7) =     11.89752  eV     1   --> A'             
     e(  8 -  8) =     12.21678  eV     1   --> A''            

 **************************************************************************

 **************************************************************************

                    xk=(   0.10607,   0.42426,   0.10607  )

     Band symmetry, C_s (m)     point group:

     e(  1 -  1) =     -4.11593  eV     1   --> A'             
     e(  2 -  2) =      1.21443  eV     1   --> A'             
     e(  3 -  3) =      3.51364  eV     1   --> A'             
     e(  4 -  4) =      4.03364  eV     1   --> A''            
     e(  5 -  5) =      7.60624  eV     1   --> A'             
     e(  6 -  6) =      9.38453  eV     1   --> A'             
     e(  7 -  7) =     11.58769  eV     1   --> A'             
     e(  8 -  8) =     11.97700  eV     1   --> A''            

 **************************************************************************

 **************************************************************************

                    xk=(   0.09723,   0.38891,   0.09723  )

     Band symmetry, C_s (m)     point group:

     e(  1 -  1) =     -4.38103  eV     1   --> A'             
     e(  2 -  2) =      1.63587  eV     1   --> A'             
     e(  3 -  3) =      3.81295  eV     1   --> A'             
     e(  4 -  4) =      4.16854  eV     1   --> A''            
     e(  5 -  5) =      7.69815  eV     1   --> A'             
     e(  6 -  6) =      9.51795  eV     1   --> A'             
     e(  7 -  7) =     11.28712  eV     1   --> A'             
     e(  8 -  8) =     11.72396  eV     1   --> A''            

 **************************************************************************

 **************************************************************************

                    xk=(   0.08839,   0.35355,   0.08839  )

     Band symmetry, C_s (m)     point group:

     e(  1 -  1) =     -4.62677  eV     1   --> A'             
     e(  2 -  2) =      2.07253  eV     1   --> A'             
     e(  3 -  3) =      4.11297  eV     1   --> A'             
     e(  4 -  4) =      4.32307  eV     1   --> A''            
     e(  5 -  5) =      7.78655  eV     1   --> A'             
     e(  6 -  6) =      9.70355  eV     1   --> A'             
     e(  7 -  7) =     11.00295  eV     1   --> A'             
     e(  8 -  8) =     11.45174  eV     1   --> A''            

 **************************************************************************

 **************************************************************************

                    xk=(   0.07955,   0.31820,   0.07955  )

     Band symmetry, C_s (m)     point group:

     e(  1 -  1) =     -4.85180  eV     1   --> A'             
     e(  2 -  2) =      2.52315  eV     1   --> A'             
     e(  3 -  3) =      4.40965  eV     1   --> A'             
     e(  4 -  4) =      4.49624  eV     1   --> A''            
     e(  5 -  5) =      7.87393  eV     1   --> A'             
     e(  6 -  6) =      9.90922  eV     1   --> A'             
     e(  7 -  7) =     10.75799  eV     1   --> A'             
     e(  8 -  8) =     11.15642  eV     1   --> A''            

 **************************************************************************

 **************************************************************************

                    xk=(   0.07071,   0.28284,   0.07071  )

     Band symmetry, C_s (m)     point group:

     e(  1 -  1) =     -5.05511  eV     1   --> A'             
     e(  2 -  2) =      2.98613  eV     1   --> A'             
     e(  3 -  3) =      4.68669  eV     1   --> A''            
     e(  4 -  4) =      4.69911  eV     1   --> A'             
     e(  5 -  5) =      7.96429  eV     1   --> A'             
     e(  6 -  6) =     10.02735  eV     1   --> A'             
     e(  7 -  7) =     10.64082  eV     1   --> A'             
     e(  8 -  8) =     10.83765  eV     1   --> A''            

 **************************************************************************

 **************************************************************************

                    xk=(   0.06187,   0.24749,   0.06187  )

     Band symmetry, C_s (m)     point group:

     e(  1 -  1) =     -5.23592  eV     1   --> A'             
     e(  2 -  2) =      3.45919  eV     1   --> A'             
     e(  3 -  3) =      4.89241  eV     1   --> A''            
     e(  4 -  4) =      4.97738  eV     1   --> A'             
     e(  5 -  5) =      8.06101  eV     1   --> A'             
     e(  6 -  6) =      9.92257  eV     1   --> A'             
     e(  7 -  7) =     10.49950  eV     1   --> A''            
     e(  8 -  8) =     10.74809  eV     1   --> A'             

 **************************************************************************

 **************************************************************************

                    xk=(   0.05303,   0.21213,   0.05303  )

     Band symmetry, C_s (m)     point group:

     e(  1 -  1) =     -5.39362  eV     1   --> A'             
     e(  2 -  2) =      3.93893  eV     1   --> A'             
     e(  3 -  3) =      5.11043  eV     1   --> A''            
     e(  4 -  4) =      5.24022  eV     1   --> A'             
     e(  5 -  5) =      8.16547  eV     1   --> A'             
     e(  6 -  6) =      9.71025  eV     1   --> A'             
     e(  7 -  7) =     10.14992  eV     1   --> A''            
     e(  8 -  8) =     10.87761  eV     1   --> A'             

 **************************************************************************

 **************************************************************************

                    xk=(   0.04419,   0.17678,   0.04419  )

     Band symmetry, C_s (m)     point group:

     e(  1 -  1) =     -5.52775  eV     1   --> A'             
     e(  2 -  2) =      4.42004  eV     1   --> A'             
     e(  3 -  3) =      5.33622  eV     1   --> A''            
     e(  4 -  4) =      5.48281  eV     1   --> A'             
     e(  5 -  5) =      8.27631  eV     1   --> A'             
     e(  6 -  6) =      9.48151  eV     1   --> A'             
     e(  7 -  7) =      9.79989  eV     1   --> A''            
     e(  8 -  8) =     10.80349  eV     1   --> A'             

 **************************************************************************

 **************************************************************************

                    xk=(   0.03536,   0.14142,   0.03536  )

     Band symmetry, C_s (m)     point group:

     e(  1 -  1) =     -5.63794  eV     1   --> A'             
     e(  2 -  2) =      4.89360  eV     1   --> A'             
     e(  3 -  3) =      5.56267  eV     1   --> A''            
     e(  4 -  4) =      5.69932  eV     1   --> A'             
     e(  5 -  5) =      8.38887  eV     1   --> A'             
     e(  6 -  6) =      9.26050  eV     1   --> A'             
     e(  7 -  7) =      9.46286  eV     1   --> A''            
     e(  8 -  8) =     10.50244  eV     1   --> A'             

 **************************************************************************

 **************************************************************************

                    xk=(   0.02652,   0.10607,   0.02652  )

     Band symmetry, C_s (m)     point group:

     e(  1 -  1) =     -5.72391  eV     1   --> A'             
     e(  2 -  2) =      5.34387  eV     1   --> A'             
     e(  3 -  3) =      5.77838  eV     1   --> A''            
     e(  4 -  4) =      5.88262  eV     1   --> A'             
     e(  5 -  5) =      8.49506  eV     1   --> A'             
     e(  6 -  6) =      9.05556  eV     1   --> A'             
     e(  7 -  7) =      9.15571  eV     1   --> A''            
     e(  8 -  8) =     10.11723  eV     1   --> A'             

 **************************************************************************

 **************************************************************************

                    xk=(   0.01768,   0.07071,   0.01768  )

     Band symmetry, C_s (m)     point group:

     e(  1 -  1) =     -5.78546  eV     1   --> A'             
     e(  2 -  2) =      5.74163  eV     1   --> A'             
     e(  3 -  3) =      5.96520  eV     1   --> A''            
     e(  4 -  4) =      6.02407  eV     1   --> A'             
     e(  5 -  5) =      8.58386  eV     1   --> A'             
     e(  6 -  6) =      8.87177  eV     1   --> A'             
     e(  7 -  7) =      8.90070  eV     1   --> A''            
     e(  8 -  8) =      9.76402  eV     1   --> A'             

 **************************************************************************

 **************************************************************************

                    xk=(   0.00884,   0.03536,   0.00884  )

     Band symmetry, C_s (m)     point group:

     e(  1 -  1) =     -5.82245  eV     1   --> A'             
     e(  2 -  2) =      6.03380  eV     1   --> A'             
     e(  3 -  3) =      6.09700  eV     1   --> A''            
     e(  4 -  4) =      6.11428  eV     1   --> A'             
     e(  5 -  5) =      8.64335  eV     1   --> A'             
     e(  6 -  6) =      8.72536  eV     1   --> A'             
     e(  7 -  7) =      8.72688  eV     1   --> A''            
     e(  8 -  8) =      9.52178  eV     1   --> A'             

 **************************************************************************

 **************************************************************************

                    xk=(   0.00000,   0.00000,   0.00000  )

     point group O_h (m-3m) 
     there are 10 classes
     the character table:

       E     8C3   3C2   6C4   6C2'  i     8S6   3s_h  6S4   6s_d 
A_1g   1.00  1.00  1.00  1.00  1.00  1.00  1.00  1.00  1.00  1.00
A_2g   1.00  1.00  1.00 -1.00 -1.00  1.00  1.00  1.00 -1.00 -1.00
E_g    2.00 -1.00  2.00  0.00  0.00  2.00 -1.00  2.00  0.00  0.00
T_1g   3.00  0.00 -1.00  1.00 -1.00  3.00  0.00 -1.00  1.00 -1.00
T_2g   3.00  0.00 -1.00 -1.00  1.00  3.00  0.00 -1.00 -1.00  1.00
A_1u   1.00  1.00  1.00  1.00  1.00 -1.00 -1.00 -1.00 -1.00 -1.00
A_2u   1.00  1.00  1.00 -1.00 -1.00 -1.00 -1.00 -1.00  1.00  1.00
E_u    2.00 -1.00  2.00  0.00  0.00 -2.00  1.00 -2.00  0.00  0.00
T_1u   3.00  0.00 -1.00  1.00 -1.00 -3.00  0.00  1.00 -1.00  1.00
T_2u   3.00  0.00 -1.00 -1.00  1.00 -3.00  0.00  1.00  1.00 -1.00

     the symmetry operations in each class and the name of the first element:

     E        1
                                                                 
     8C3     17   19   20   18   24   21   22   23
                                                                 
     3C2      2    4    3
                                                                 
     6C4      7    8   15   16   12   11
                                                                 
     6C2'     5    6   14   13   10    9
                                                                 
     i       25
                                                                 
     8S6     41   43   44   42   48   45   46   47
                                                                 
     3s_h    26   28   27
                                                                 
     6S4     31   32   39   40   36   35
                                                                 
     6s_d    29   30   38   37   34   33
                                                                 

     Band symmetry, O_h (m-3m)  point group:

     e(  1 -  1) =     -5.83478  eV     1   --> A_1g G_1   G_1+
     e(  2 -  4) =      6.14540  eV     3   --> T_2g G_25' G_5+
     e(  5 -  7) =      8.66430  eV     3   --> T_1u G_15  G_4-
     e(  8 -  8) =      9.43713  eV     1   --> A_2u G_2'  G_2-

 **************************************************************************

 **************************************************************************

                    xk=(   0.02357,   0.02357,   0.02357  )

     point group C_3v (3m)  
     there are  3 classes
     the character table:

       E     2C3   3s_v 
A_1    1.00  1.00  1.00
A_2    1.00  1.00 -1.00
E      2.00 -1.00  0.00

     the symmetry operations in each class and the name of the first element:

     E        1
                                                                 
     2C3      2    3
                                                                 
     3s_v     4    5    6
                                                                 

     Band symmetry, C_3v (3m)   point group:

     e(  1 -  1) =     -5.82016  eV     1   --> A_1  L_1       
     e(  2 -  2) =      5.97382  eV     1   --> A_1  L_1       
     e(  3 -  4) =      6.11989  eV     2   --> E    L_3       
     e(  5 -  6) =      8.70144  eV     2   --> E    L_3       
     e(  7 -  7) =      8.70215  eV     1   --> A_1  L_1       
     e(  8 -  8) =      9.54314  eV     1   --> A_1  L_1       

 **************************************************************************

 **************************************************************************

                    xk=(   0.04714,   0.04714,   0.04714  )

     Band symmetry, C_3v (3m)   point group:

     e(  1 -  1) =     -5.77637  eV     1   --> A_1  L_1       
     e(  2 -  2) =      5.54496  eV     1   --> A_1  L_1       
     e(  3 -  4) =      6.04868  eV     2   --> E    L_3       
     e(  5 -  5) =      8.72006  eV     1   --> A_1  L_1       
     e(  6 -  7) =      8.80573  eV     2   --> E    L_3       
     e(  8 -  8) =      9.87480  eV     1   --> A_1  L_1       

 **************************************************************************

 **************************************************************************

                    xk=(   0.07071,   0.07071,   0.07071  )

     Band symmetry, C_3v (3m)   point group:

     e(  1 -  1) =     -5.70361  eV     1   --> A_1  L_1       
     e(  2 -  2) =      4.98764  eV     1   --> A_1  L_1       
     e(  3 -  4) =      5.94449  eV     2   --> E    L_3       
     e(  5 -  5) =      8.66187  eV     1   --> A_1  L_1       
     e(  6 -  7) =      8.95894  eV     2   --> E    L_3       
     e(  8 -  8) =     10.36935  eV     1   --> A_1  L_1       

 **************************************************************************

 **************************************************************************

                    xk=(   0.09428,   0.09428,   0.09428  )

     Band symmetry, C_3v (3m)   point group:

     e(  1 -  1) =     -5.60225  eV     1   --> A_1  L_1       
     e(  2 -  2) =      4.37600  eV     1   --> A_1  L_1       
     e(  3 -  4) =      5.82133  eV     2   --> E    L_3       
     e(  5 -  5) =      8.55623  eV     1   --> A_1  L_1       
     e(  6 -  7) =      9.13719  eV     2   --> E    L_3       
     e(  8 -  8) =     10.93671  eV     1   --> A_1  L_1       

 **************************************************************************

 **************************************************************************

                    xk=(   0.11785,   0.11785,   0.11785  )

     Band symmetry, C_3v (3m)   point group:

     e(  1 -  1) =     -5.47285  eV     1   --> A_1  L_1       
     e(  2 -  2) =      3.74581  eV     1   --> A_1  L_1       
     e(  3 -  4) =      5.69080  eV     2   --> E    L_3       
     e(  5 -  5) =      8.42866  eV     1   --> A_1  L_1       
     e(  6 -  7) =      9.31477  eV     2   --> E    L_3       
     e(  8 -  8) =     11.52822  eV     1   --> A_1  L_1       

 **************************************************************************

 **************************************************************************

                    xk=(   0.14142,   0.14142,   0.14142  )

     Band symmetry, C_3v (3m)   point group:

     e(  1 -  1) =     -5.31623  eV     1   --> A_1  L_1       
     e(  2 -  2) =      3.11571  eV     1   --> A_1  L_1       
     e(  3 -  4) =      5.56128  eV     2   --> E    L_3       
     e(  5 -  5) =      8.29423  eV     1   --> A_1  L_1       
     e(  6 -  7) =      9.46649  eV     2   --> E    L_3       
     e(  8 -  8) =     12.12061  eV     1   --> A_1  L_1       

 **************************************************************************

 **************************************************************************

                    xk=(   0.16499,   0.16499,   0.16499  )

     Band symmetry, C_3v (3m)   point group:

     e(  1 -  1) =     -5.13365  eV     1   --> A_1  L_1       
     e(  2 -  2) =      2.49683  eV     1   --> A_1  L_1       
     e(  3 -  4) =      5.43838  eV     2   --> E    L_3       
     e(  5 -  5) =      8.16220  eV     1   --> A_1  L_1       
     e(  6 -  7) =      9.57245  eV     2   --> E    L_3       
     e(  8 -  8) =     12.69801  eV     1   --> A_1  L_1       

 **************************************************************************

 **************************************************************************

                    xk=(   0.18856,   0.18856,   0.18856  )

     Band symmetry, C_3v (3m)   point group:

     e(  1 -  1) =     -4.92690  eV     1   --> A_1  L_1       
     e(  2 -  2) =      1.89704  eV     1   --> A_1  L_1       
     e(  3 -  4) =      5.32580  eV     2   --> E    L_3       
     e(  5 -  5) =      8.03847  eV     1   --> A_1  L_1       
     e(  6 -  7) =      9.62433  eV     2   --> E    L_3       
     e(  8 -  8) =     13.23479  eV     1   --> A_1  L_1       

 **************************************************************************

 **************************************************************************

                    xk=(   0.21213,   0.21213,   0.21213  )

     Band symmetry, C_3v (3m)   point group:

     e(  1 -  1) =     -4.69879  eV     1   --> A_1  L_1       
     e(  2 -  2) =      1.32306  eV     1   --> A_1  L_1       
     e(  3 -  4) =      5.22589  eV     2   --> E    L_3       
     e(  5 -  5) =      7.92686  eV     1   --> A_1  L_1       
     e(  6 -  7) =      9.62784  eV     2   --> E    L_3       
     e(  8 -  8) =     13.66018  eV     1   --> A_1  L_1       

 **************************************************************************

 **************************************************************************

                    xk=(   0.23570,   0.23570,   0.23570  )

     Band symmetry, C_3v (3m)   point group:

     e(  1 -  1) =     -4.45373  eV     1   --> A_1  L_1       
     e(  2 -  2) =      0.78200  eV     1   --> A_1  L_1       
     e(  3 -  4) =      5.14008  eV     2   --> E    L_3       
     e(  5 -  5) =      7.82985  eV     1   --> A_1  L_1       
     e(  6 -  7) =      9.59788  eV     2   --> E    L_3       
     e(  8 -  8) =     13.85331  eV     1   --> A_1  L_1       

 **************************************************************************

 **************************************************************************

                    xk=(   0.25927,   0.25927,   0.25927  )

     Band symmetry, C_3v (3m)   point group:

     e(  1 -  1) =     -4.19902  eV     1   --> A_1  L_1       
     e(  2 -  2) =      0.28304  eV     1   --> A_1  L_1       
     e(  3 -  4) =      5.06925  eV     2   --> E    L_3       
     e(  5 -  5) =      7.74902  eV     1   --> A_1  L_1       
     e(  6 -  7) =      9.55121  eV     2   --> E    L_3       
     e(  8 -  8) =     13.85112  eV     1   --> A_1  L_1       

 **************************************************************************

 **************************************************************************

                    xk=(   0.28284,   0.28284,   0.28284  )

     Band symmetry, C_3v (3m)   point group:

     e(  1 -  1) =     -3.94721  eV     1   --> A_1  L_1       
     e(  2 -  2) =     -0.15992  eV     1   --> A_1  L_1       
     e(  3 -  4) =      5.01388  eV     2   --> E    L_3       
     e(  5 -  5) =      7.68540  eV     1   --> A_1  L_1       
     e(  6 -  7) =      9.50195  eV     2   --> E    L_3       
     e(  8 -  8) =     13.78783  eV     1   --> A_1  L_1       

 **************************************************************************

 **************************************************************************

                    xk=(   0.30641,   0.30641,   0.30641  )

     Band symmetry, C_3v (3m)   point group:

     e(  1 -  1) =     -3.72016  eV     1   --> A_1  L_1       
     e(  2 -  2) =     -0.52412  eV     1   --> A_1  L_1       
     e(  3 -  4) =      4.97423  eV     2   --> E    L_3       
     e(  5 -  5) =      7.63961  eV     1   --> A_1  L_1       
     e(  6 -  7) =      9.46030  eV     2   --> E    L_3       
     e(  8 -  8) =     13.72441  eV     1   --> A_1  L_1       

 **************************************************************************

 **************************************************************************

                    xk=(   0.32998,   0.32998,   0.32998  )

     Band symmetry, C_3v (3m)   point group:

     e(  1 -  1) =     -3.55332  eV     1   --> A_1  L_1       
     e(  2 -  2) =     -0.77348  eV     1   --> A_1  L_1       
     e(  3 -  4) =      4.95041  eV     2   --> E    L_3       
     e(  5 -  5) =      7.61201  eV     1   --> A_1  L_1       
     e(  6 -  7) =      9.43289  eV     2   --> E    L_3       
     e(  8 -  8) =     13.68152  eV     1   --> A_1  L_1       

 **************************************************************************

 **************************************************************************

                    xk=(   0.35355,   0.35355,   0.35355  )

     zone border point and non-symmorphic group 
     symmetry decomposition not available

 **************************************************************************

 **************************************************************************

                    xk=(   0.35355,   0.37712,   0.32998  )

     zone border point and non-symmorphic group 
     symmetry decomposition not available

 **************************************************************************

 **************************************************************************

                    xk=(   0.35355,   0.40069,   0.30641  )

     zone border point and non-symmorphic group 
     symmetry decomposition not available

 **************************************************************************

 **************************************************************************

                    xk=(   0.35355,   0.42426,   0.28284  )

     zone border point and non-symmorphic group 
     symmetry decomposition not available

 **************************************************************************

 **************************************************************************

                    xk=(   0.35355,   0.44783,   0.25927  )

     zone border point and non-symmorphic group 
     symmetry decomposition not available

 **************************************************************************

 **************************************************************************

                    xk=(   0.35355,   0.47140,   0.23570  )

     zone border point and non-symmorphic group 
     symmetry decomposition not available

 **************************************************************************

 **************************************************************************

                    xk=(   0.35355,   0.49497,   0.21213  )

     zone border point and non-symmorphic group 
     symmetry decomposition not available

 **************************************************************************

 **************************************************************************

                    xk=(   0.35355,   0.51854,   0.18856  )

     zone border point and non-symmorphic group 
     symmetry decomposition not available

 **************************************************************************

 **************************************************************************

                    xk=(   0.35355,   0.54212,   0.16499  )

     zone border point and non-symmorphic group 
     symmetry decomposition not available

 **************************************************************************

 **************************************************************************

                    xk=(   0.35355,   0.56569,   0.14142  )

     zone border point and non-symmorphic group 
     symmetry decomposition not available

 **************************************************************************

 **************************************************************************

                    xk=(   0.35355,   0.58926,   0.11785  )

     zone border point and non-symmorphic group 
     symmetry decomposition not available

 **************************************************************************

 **************************************************************************

                    xk=(   0.35355,   0.61283,   0.09428  )

     zone border point and non-symmorphic group 
     symmetry decomposition not available

 **************************************************************************

 **************************************************************************

                    xk=(   0.35355,   0.63640,   0.07071  )

     zone border point and non-symmorphic group 
     symmetry decomposition not available

 **************************************************************************

 **************************************************************************

                    xk=(   0.35355,   0.65997,   0.04714  )

     zone border point and non-symmorphic group 
     symmetry decomposition not available

 **************************************************************************

 **************************************************************************

                    xk=(   0.35355,   0.68354,   0.02357  )

     zone border point and non-symmorphic group 
     symmetry decomposition not available

 **************************************************************************

 **************************************************************************

                    xk=(   0.35355,   0.70711,   0.00000  )

     zone border point and non-symmorphic group 
     symmetry decomposition not available

 **************************************************************************

 **************************************************************************

                    xk=(   0.31820,   0.70711,   0.00000  )

     zone border point and non-symmorphic group 
     symmetry decomposition not available

 **************************************************************************

 **************************************************************************

                    xk=(   0.28284,   0.70711,   0.00000  )

     zone border point and non-symmorphic group 
     symmetry decomposition not available

 **************************************************************************

 **************************************************************************

                    xk=(   0.24749,   0.70711,   0.00000  )

     zone border point and non-symmorphic group 
     symmetry decomposition not available

 **************************************************************************

 **************************************************************************

                    xk=(   0.21213,   0.70711,   0.00000  )

     zone border point and non-symmorphic group 
     symmetry decomposition not available

 **************************************************************************

 **************************************************************************

                    xk=(   0.17678,   0.70711,   0.00000  )

     zone border point and non-symmorphic group 
     symmetry decomposition not available

 **************************************************************************

 **************************************************************************

                    xk=(   0.14142,   0.70711,   0.00000  )

     zone border point and non-symmorphic group 
     symmetry decomposition not available

 **************************************************************************

 **************************************************************************

                    xk=(   0.10607,   0.70711,   0.00000  )

     zone border point and non-symmorphic group 
     symmetry decomposition not available

 **************************************************************************

 **************************************************************************

                    xk=(   0.07071,   0.70711,  -0.00000  )

     zone border point and non-symmorphic group 
     symmetry decomposition not available

 **************************************************************************

 **************************************************************************

                    xk=(   0.03536,   0.70711,   0.00000  )

     zone border point and non-symmorphic group 
     symmetry decomposition not available

 **************************************************************************

 **************************************************************************

                    xk=(   0.00000,   0.70711,   0.00000  )

     zone border point and non-symmorphic group 
     symmetry decomposition not available

 **************************************************************************

     BANDS        :      1.33s CPU      1.80s WALL


   This run was terminated on:   7:10:36  22Dec2024            

=------------------------------------------------------------------------------=
   JOB DONE.
=------------------------------------------------------------------------------=
