
     Program PWSCF v.7.3.1 starts on 22Dec2024 at  7: 0: 2 

     This program is part of the open-source Quantum ESPRESSO suite
     for quantum simulation of materials; please cite
         "P. Giannozzi et al., J. Phys.:Condens. Matter 21 395502 (2009);
         "P. Giannozzi et al., J. Phys.:Condens. Matter 29 465901 (2017);
         "P. Giannozzi et al., J. Chem. Phys. 152 154105 (2020);
          URL http://www.quantum-espresso.org", 
     in publications or presentations arising from this work. More details at
     http://www.quantum-espresso.org/quote

     Parallel version (MPI), running on     8 processors

     MPI processes distributed on     1 nodes
     10546 MiB available memory on the printing compute node when the environment starts

     Reading input from scf.in

     Current dimensions of program PWSCF are:
     Max number of different atomic species (ntypx) = 10
     Max number of k-points (npk) =  40000
     Max angular momentum in pseudopotentials (lmaxx) =  4
     file Si.pbesol-n-kjpaw_psl.1.0.0.UPF: wavefunction(s)  3S 3P renormalized

     R & G space division:  proc/nbgrp/npool/nimage =       8
     Subspace diagonalization in iterative solution of the eigenvalue problem:
     a serial algorithm will be used


     Parallelization info
     --------------------
     sticks:   dense  smooth     PW     G-vecs:    dense   smooth      PW
     Min          91      91     27                 1617     1617     266
     Max          92      92     29                 1618     1618     267
     Sum         733     733    223                12939    12939    2133

     Using Slab Decomposition



     bravais-lattice index     =           -5
     lattice parameter (alat)  =       7.2607  a.u.
     unit-cell volume          =     270.6605 (a.u.)^3
     number of atoms/cell      =            2
     number of atomic types    =            1
     number of electrons       =         8.00
     number of Kohn-Sham states=            8
     kinetic-energy cutoff     =      50.0000  Ry
     charge density cutoff     =     200.0000  Ry
     scf convergence threshold =      1.0E-09
     mixing beta               =       0.7000
     number of iterations used =            8  plain     mixing
     Exchange-correlation= SLA  PW   PSX  PSC
                           (   1   4  10   8   0   0   0)

     celldm(1)=   7.260725  celldm(2)=   0.000000  celldm(3)=   0.000000
     celldm(4)=   0.500000  celldm(5)=   0.000000  celldm(6)=   0.000000

     crystal axes: (cart. coord. in units of alat)
               a(1) = (   0.000000   0.707107   0.707107 )  
               a(2) = (   0.707107   0.000000   0.707107 )  
               a(3) = (   0.707107   0.707107   0.000000 )  

     reciprocal axes: (cart. coord. in units 2 pi/alat)
               b(1) = ( -0.707107  0.707107  0.707107 )  
               b(2) = (  0.707107 -0.707107  0.707107 )  
               b(3) = (  0.707107  0.707107 -0.707107 )  


     PseudoPot. # 1 for Si read from file:
     ./../../pseudos/Si.pbesol-n-kjpaw_psl.1.0.0.UPF
     MD5 check sum: 9fbd692c527d147d9ad0870b71777ff4
     Pseudo is Projector augmented-wave + core cor, Zval =  4.0
     Generated using &quot;atomic&quot; code by A. Dal Corso  v.6.3
     Shape of augmentation charge: PSQ
     Using radial grid of 1141 points,  6 beta functions with: 
                l(1) =   0
                l(2) =   0
                l(3) =   1
                l(4) =   1
                l(5) =   2
                l(6) =   2
     Q(r) pseudized with 0 coefficients 


     atomic species   valence    mass     pseudopotential
     Si                4.00    28.08550     Si( 1.00)

     48 Sym. Ops., with inversion, found (24 have fractional translation)


                                    s                        frac. trans.

      isym =  1     identity                                     

 cryst.   s( 1) = (     1          0          0      )
                  (     0          1          0      )
                  (     0          0          1      )

 cart.    s( 1) = (  1.0000000  0.0000000  0.0000000 )
                  (  0.0000000  1.0000000  0.0000000 )
                  (  0.0000000  0.0000000  1.0000000 )


      isym =  2     180 deg rotation - cart. axis [0,0,1]        

 cryst.   s( 2) = (     0          1         -1      )
                  (     1          0         -1      )
                  (     0          0         -1      )

 cart.    s( 2) = ( -1.0000000  0.0000000  0.0000000 )
                  (  0.0000000 -1.0000000  0.0000000 )
                  (  0.0000000  0.0000000  1.0000000 )


      isym =  3     180 deg rotation - cart. axis [0,1,0]        

 cryst.   s( 3) = (     0         -1          1      )
                  (     0         -1          0      )
                  (     1         -1          0      )

 cart.    s( 3) = ( -1.0000000  0.0000000  0.0000000 )
                  (  0.0000000  1.0000000  0.0000000 )
                  (  0.0000000  0.0000000 -1.0000000 )


      isym =  4     180 deg rotation - cart. axis [1,0,0]        

 cryst.   s( 4) = (    -1          0          0      )
                  (    -1          0          1      )
                  (    -1          1          0      )

 cart.    s( 4) = (  1.0000000  0.0000000  0.0000000 )
                  (  0.0000000 -1.0000000  0.0000000 )
                  (  0.0000000  0.0000000 -1.0000000 )


      isym =  5     180 deg rotation - cart. axis [1,1,0]        

 cryst.   s( 5) = (    -1          0          1      )    f =( -0.2499998 )
                  (     0         -1          1      )       ( -0.2499998 )
                  (     0          0          1      )       ( -0.2500001 )

 cart.    s( 5) = (  0.0000000  1.0000000  0.0000000 )    f =( -0.3535533 )
                  (  1.0000000  0.0000000  0.0000000 )       ( -0.3535533 )
                  (  0.0000000  0.0000000 -1.0000000 )       ( -0.3535531 )


      isym =  6     180 deg rotation - cart. axis [1,-1,0]       

 cryst.   s( 6) = (     0         -1          0      )    f =( -0.2499998 )
                  (    -1          0          0      )       ( -0.2499998 )
                  (     0          0         -1      )       ( -0.2499998 )

 cart.    s( 6) = (  0.0000000 -1.0000000  0.0000000 )    f =( -0.3535531 )
                  ( -1.0000000  0.0000000  0.0000000 )       ( -0.3535531 )
                  (  0.0000000  0.0000000 -1.0000000 )       ( -0.3535531 )


      isym =  7      90 deg rotation - cart. axis [0,0,-1]       

 cryst.   s( 7) = (     0          1          0      )    f =( -0.2499998 )
                  (     0          1         -1      )       ( -0.2500001 )
                  (    -1          1          0      )       ( -0.2499998 )

 cart.    s( 7) = (  0.0000000  1.0000000  0.0000000 )    f =( -0.3535533 )
                  ( -1.0000000  0.0000000  0.0000000 )       ( -0.3535531 )
                  (  0.0000000  0.0000000  1.0000000 )       ( -0.3535533 )


      isym =  8      90 deg rotation - cart. axis [0,0,1]        

 cryst.   s( 8) = (     1          0         -1      )    f =( -0.2500001 )
                  (     1          0          0      )       ( -0.2499998 )
                  (     1         -1          0      )       ( -0.2499998 )

 cart.    s( 8) = (  0.0000000 -1.0000000  0.0000000 )    f =( -0.3535531 )
                  (  1.0000000  0.0000000  0.0000000 )       ( -0.3535533 )
                  (  0.0000000  0.0000000  1.0000000 )       ( -0.3535533 )


      isym =  9     180 deg rotation - cart. axis [1,0,1]        

 cryst.   s( 9) = (    -1          1          0      )    f =( -0.2499998 )
                  (     0          1          0      )       ( -0.2500001 )
                  (     0          1         -1      )       ( -0.2499998 )

 cart.    s( 9) = (  0.0000000  0.0000000  1.0000000 )    f =( -0.3535533 )
                  (  0.0000000 -1.0000000  0.0000000 )       ( -0.3535531 )
                  (  1.0000000  0.0000000  0.0000000 )       ( -0.3535533 )


      isym = 10     180 deg rotation - cart. axis [-1,0,1]       

 cryst.   s(10) = (     0          0         -1      )    f =( -0.2499998 )
                  (     0         -1          0      )       ( -0.2499998 )
                  (    -1          0          0      )       ( -0.2499998 )

 cart.    s(10) = (  0.0000000  0.0000000 -1.0000000 )    f =( -0.3535531 )
                  (  0.0000000 -1.0000000  0.0000000 )       ( -0.3535531 )
                  ( -1.0000000  0.0000000  0.0000000 )       ( -0.3535531 )


      isym = 11      90 deg rotation - cart. axis [0,1,0]        

 cryst.   s(11) = (     0          0          1      )    f =( -0.2499998 )
                  (    -1          0          1      )       ( -0.2499998 )
                  (     0         -1          1      )       ( -0.2500001 )

 cart.    s(11) = (  0.0000000  0.0000000  1.0000000 )    f =( -0.3535533 )
                  (  0.0000000  1.0000000  0.0000000 )       ( -0.3535533 )
                  ( -1.0000000  0.0000000  0.0000000 )       ( -0.3535531 )


      isym = 12      90 deg rotation - cart. axis [0,-1,0]       

 cryst.   s(12) = (     1         -1          0      )    f =( -0.2500001 )
                  (     1          0         -1      )       ( -0.2499998 )
                  (     1          0          0      )       ( -0.2499998 )

 cart.    s(12) = (  0.0000000  0.0000000 -1.0000000 )    f =( -0.3535531 )
                  (  0.0000000  1.0000000  0.0000000 )       ( -0.3535533 )
                  (  1.0000000  0.0000000  0.0000000 )       ( -0.3535533 )


      isym = 13     180 deg rotation - cart. axis [0,1,1]        

 cryst.   s(13) = (     1          0          0      )    f =( -0.2500001 )
                  (     1         -1          0      )       ( -0.2499998 )
                  (     1          0         -1      )       ( -0.2499998 )

 cart.    s(13) = ( -1.0000000  0.0000000  0.0000000 )    f =( -0.3535531 )
                  (  0.0000000  0.0000000  1.0000000 )       ( -0.3535533 )
                  (  0.0000000  1.0000000  0.0000000 )       ( -0.3535533 )


      isym = 14     180 deg rotation - cart. axis [0,1,-1]       

 cryst.   s(14) = (    -1          0          0      )    f =( -0.2499998 )
                  (     0          0         -1      )       ( -0.2499998 )
                  (     0         -1          0      )       ( -0.2499998 )

 cart.    s(14) = ( -1.0000000  0.0000000  0.0000000 )    f =( -0.3535531 )
                  (  0.0000000  0.0000000 -1.0000000 )       ( -0.3535531 )
                  (  0.0000000 -1.0000000  0.0000000 )       ( -0.3535531 )


      isym = 15      90 deg rotation - cart. axis [-1,0,0]       

 cryst.   s(15) = (     0         -1          1      )    f =( -0.2499998 )
                  (     0          0          1      )       ( -0.2499998 )
                  (    -1          0          1      )       ( -0.2500001 )

 cart.    s(15) = (  1.0000000  0.0000000  0.0000000 )    f =( -0.3535533 )
                  (  0.0000000  0.0000000  1.0000000 )       ( -0.3535533 )
                  (  0.0000000 -1.0000000  0.0000000 )       ( -0.3535531 )


      isym = 16      90 deg rotation - cart. axis [1,0,0]        

 cryst.   s(16) = (     0          1         -1      )    f =( -0.2499998 )
                  (    -1          1          0      )       ( -0.2500001 )
                  (     0          1          0      )       ( -0.2499998 )

 cart.    s(16) = (  1.0000000  0.0000000  0.0000000 )    f =( -0.3535533 )
                  (  0.0000000  0.0000000 -1.0000000 )       ( -0.3535531 )
                  (  0.0000000  1.0000000  0.0000000 )       ( -0.3535533 )


      isym = 17     120 deg rotation - cart. axis [-1,-1,-1]     

 cryst.   s(17) = (     0          0          1      )
                  (     1          0          0      )
                  (     0          1          0      )

 cart.    s(17) = (  0.0000000  1.0000000  0.0000000 )
                  (  0.0000000  0.0000000  1.0000000 )
                  (  1.0000000  0.0000000  0.0000000 )


      isym = 18     120 deg rotation - cart. axis [-1,1,1]       

 cryst.   s(18) = (     1         -1          0      )
                  (     0         -1          1      )
                  (     0         -1          0      )

 cart.    s(18) = (  0.0000000 -1.0000000  0.0000000 )
                  (  0.0000000  0.0000000  1.0000000 )
                  ( -1.0000000  0.0000000  0.0000000 )


      isym = 19     120 deg rotation - cart. axis [1,1,-1]       

 cryst.   s(19) = (    -1          1          0      )
                  (    -1          0          0      )
                  (    -1          0          1      )

 cart.    s(19) = (  0.0000000  1.0000000  0.0000000 )
                  (  0.0000000  0.0000000 -1.0000000 )
                  ( -1.0000000  0.0000000  0.0000000 )


      isym = 20     120 deg rotation - cart. axis [1,-1,1]       

 cryst.   s(20) = (     0          0         -1      )
                  (     0          1         -1      )
                  (     1          0         -1      )

 cart.    s(20) = (  0.0000000 -1.0000000  0.0000000 )
                  (  0.0000000  0.0000000 -1.0000000 )
                  (  1.0000000  0.0000000  0.0000000 )


      isym = 21     120 deg rotation - cart. axis [1,1,1]        

 cryst.   s(21) = (     0          1          0      )
                  (     0          0          1      )
                  (     1          0          0      )

 cart.    s(21) = (  0.0000000  0.0000000  1.0000000 )
                  (  1.0000000  0.0000000  0.0000000 )
                  (  0.0000000  1.0000000  0.0000000 )


      isym = 22     120 deg rotation - cart. axis [-1,1,-1]      

 cryst.   s(22) = (    -1          0          1      )
                  (    -1          1          0      )
                  (    -1          0          0      )

 cart.    s(22) = (  0.0000000  0.0000000  1.0000000 )
                  ( -1.0000000  0.0000000  0.0000000 )
                  (  0.0000000 -1.0000000  0.0000000 )


      isym = 23     120 deg rotation - cart. axis [1,-1,-1]      

 cryst.   s(23) = (     1          0         -1      )
                  (     0          0         -1      )
                  (     0          1         -1      )

 cart.    s(23) = (  0.0000000  0.0000000 -1.0000000 )
                  ( -1.0000000  0.0000000  0.0000000 )
                  (  0.0000000  1.0000000  0.0000000 )


      isym = 24     120 deg rotation - cart. axis [-1,-1,1]      

 cryst.   s(24) = (     0         -1          0      )
                  (     1         -1          0      )
                  (     0         -1          1      )

 cart.    s(24) = (  0.0000000  0.0000000 -1.0000000 )
                  (  1.0000000  0.0000000  0.0000000 )
                  (  0.0000000 -1.0000000  0.0000000 )


      isym = 25     inversion                                    

 cryst.   s(25) = (    -1          0          0      )    f =( -0.2499998 )
                  (     0         -1          0      )       ( -0.2499998 )
                  (     0          0         -1      )       ( -0.2499998 )

 cart.    s(25) = ( -1.0000000  0.0000000  0.0000000 )    f =( -0.3535531 )
                  (  0.0000000 -1.0000000  0.0000000 )       ( -0.3535531 )
                  (  0.0000000  0.0000000 -1.0000000 )       ( -0.3535531 )


      isym = 26     inv. 180 deg rotation - cart. axis [0,0,1]   

 cryst.   s(26) = (     0         -1          1      )    f =( -0.2499998 )
                  (    -1          0          1      )       ( -0.2499998 )
                  (     0          0          1      )       ( -0.2500001 )

 cart.    s(26) = (  1.0000000  0.0000000  0.0000000 )    f =( -0.3535533 )
                  (  0.0000000  1.0000000  0.0000000 )       ( -0.3535533 )
                  (  0.0000000  0.0000000 -1.0000000 )       ( -0.3535531 )


      isym = 27     inv. 180 deg rotation - cart. axis [0,1,0]   

 cryst.   s(27) = (     0          1         -1      )    f =( -0.2499998 )
                  (     0          1          0      )       ( -0.2500001 )
                  (    -1          1          0      )       ( -0.2499998 )

 cart.    s(27) = (  1.0000000  0.0000000  0.0000000 )    f =( -0.3535533 )
                  (  0.0000000 -1.0000000  0.0000000 )       ( -0.3535531 )
                  (  0.0000000  0.0000000  1.0000000 )       ( -0.3535533 )


      isym = 28     inv. 180 deg rotation - cart. axis [1,0,0]   

 cryst.   s(28) = (     1          0          0      )    f =( -0.2500001 )
                  (     1          0         -1      )       ( -0.2499998 )
                  (     1         -1          0      )       ( -0.2499998 )

 cart.    s(28) = ( -1.0000000  0.0000000  0.0000000 )    f =( -0.3535531 )
                  (  0.0000000  1.0000000  0.0000000 )       ( -0.3535533 )
                  (  0.0000000  0.0000000  1.0000000 )       ( -0.3535533 )


      isym = 29     inv. 180 deg rotation - cart. axis [1,1,0]   

 cryst.   s(29) = (     1          0         -1      )
                  (     0          1         -1      )
                  (     0          0         -1      )

 cart.    s(29) = (  0.0000000 -1.0000000  0.0000000 )
                  ( -1.0000000  0.0000000  0.0000000 )
                  (  0.0000000  0.0000000  1.0000000 )


      isym = 30     inv. 180 deg rotation - cart. axis [1,-1,0]  

 cryst.   s(30) = (     0          1          0      )
                  (     1          0          0      )
                  (     0          0          1      )

 cart.    s(30) = (  0.0000000  1.0000000  0.0000000 )
                  (  1.0000000  0.0000000  0.0000000 )
                  (  0.0000000  0.0000000  1.0000000 )


      isym = 31     inv.  90 deg rotation - cart. axis [0,0,-1]  

 cryst.   s(31) = (     0         -1          0      )
                  (     0         -1          1      )
                  (     1         -1          0      )

 cart.    s(31) = (  0.0000000 -1.0000000  0.0000000 )
                  (  1.0000000  0.0000000  0.0000000 )
                  (  0.0000000  0.0000000 -1.0000000 )


      isym = 32     inv.  90 deg rotation - cart. axis [0,0,1]   

 cryst.   s(32) = (    -1          0          1      )
                  (    -1          0          0      )
                  (    -1          1          0      )

 cart.    s(32) = (  0.0000000  1.0000000  0.0000000 )
                  ( -1.0000000  0.0000000  0.0000000 )
                  (  0.0000000  0.0000000 -1.0000000 )


      isym = 33     inv. 180 deg rotation - cart. axis [1,0,1]   

 cryst.   s(33) = (     1         -1          0      )
                  (     0         -1          0      )
                  (     0         -1          1      )

 cart.    s(33) = (  0.0000000  0.0000000 -1.0000000 )
                  (  0.0000000  1.0000000  0.0000000 )
                  ( -1.0000000  0.0000000  0.0000000 )


      isym = 34     inv. 180 deg rotation - cart. axis [-1,0,1]  

 cryst.   s(34) = (     0          0          1      )
                  (     0          1          0      )
                  (     1          0          0      )

 cart.    s(34) = (  0.0000000  0.0000000  1.0000000 )
                  (  0.0000000  1.0000000  0.0000000 )
                  (  1.0000000  0.0000000  0.0000000 )


      isym = 35     inv.  90 deg rotation - cart. axis [0,1,0]   

 cryst.   s(35) = (     0          0         -1      )
                  (     1          0         -1      )
                  (     0          1         -1      )

 cart.    s(35) = (  0.0000000  0.0000000 -1.0000000 )
                  (  0.0000000 -1.0000000  0.0000000 )
                  (  1.0000000  0.0000000  0.0000000 )


      isym = 36     inv.  90 deg rotation - cart. axis [0,-1,0]  

 cryst.   s(36) = (    -1          1          0      )
                  (    -1          0          1      )
                  (    -1          0          0      )

 cart.    s(36) = (  0.0000000  0.0000000  1.0000000 )
                  (  0.0000000 -1.0000000  0.0000000 )
                  ( -1.0000000  0.0000000  0.0000000 )


      isym = 37     inv. 180 deg rotation - cart. axis [0,1,1]   

 cryst.   s(37) = (    -1          0          0      )
                  (    -1          1          0      )
                  (    -1          0          1      )

 cart.    s(37) = (  1.0000000  0.0000000  0.0000000 )
                  (  0.0000000  0.0000000 -1.0000000 )
                  (  0.0000000 -1.0000000  0.0000000 )


      isym = 38     inv. 180 deg rotation - cart. axis [0,1,-1]  

 cryst.   s(38) = (     1          0          0      )
                  (     0          0          1      )
                  (     0          1          0      )

 cart.    s(38) = (  1.0000000  0.0000000  0.0000000 )
                  (  0.0000000  0.0000000  1.0000000 )
                  (  0.0000000  1.0000000  0.0000000 )


      isym = 39     inv.  90 deg rotation - cart. axis [-1,0,0]  

 cryst.   s(39) = (     0          1         -1      )
                  (     0          0         -1      )
                  (     1          0         -1      )

 cart.    s(39) = ( -1.0000000  0.0000000  0.0000000 )
                  (  0.0000000  0.0000000 -1.0000000 )
                  (  0.0000000  1.0000000  0.0000000 )


      isym = 40     inv.  90 deg rotation - cart. axis [1,0,0]   

 cryst.   s(40) = (     0         -1          1      )
                  (     1         -1          0      )
                  (     0         -1          0      )

 cart.    s(40) = ( -1.0000000  0.0000000  0.0000000 )
                  (  0.0000000  0.0000000  1.0000000 )
                  (  0.0000000 -1.0000000  0.0000000 )


      isym = 41     inv. 120 deg rotation - cart. axis [-1,-1,-1]

 cryst.   s(41) = (     0          0         -1      )    f =( -0.2499998 )
                  (    -1          0          0      )       ( -0.2499998 )
                  (     0         -1          0      )       ( -0.2499998 )

 cart.    s(41) = (  0.0000000 -1.0000000  0.0000000 )    f =( -0.3535531 )
                  (  0.0000000  0.0000000 -1.0000000 )       ( -0.3535531 )
                  ( -1.0000000  0.0000000  0.0000000 )       ( -0.3535531 )


      isym = 42     inv. 120 deg rotation - cart. axis [-1,1,1]  

 cryst.   s(42) = (    -1          1          0      )    f =( -0.2499998 )
                  (     0          1         -1      )       ( -0.2500001 )
                  (     0          1          0      )       ( -0.2499998 )

 cart.    s(42) = (  0.0000000  1.0000000  0.0000000 )    f =( -0.3535533 )
                  (  0.0000000  0.0000000 -1.0000000 )       ( -0.3535531 )
                  (  1.0000000  0.0000000  0.0000000 )       ( -0.3535533 )


      isym = 43     inv. 120 deg rotation - cart. axis [1,1,-1]  

 cryst.   s(43) = (     1         -1          0      )    f =( -0.2500001 )
                  (     1          0          0      )       ( -0.2499998 )
                  (     1          0         -1      )       ( -0.2499998 )

 cart.    s(43) = (  0.0000000 -1.0000000  0.0000000 )    f =( -0.3535531 )
                  (  0.0000000  0.0000000  1.0000000 )       ( -0.3535533 )
                  (  1.0000000  0.0000000  0.0000000 )       ( -0.3535533 )


      isym = 44     inv. 120 deg rotation - cart. axis [1,-1,1]  

 cryst.   s(44) = (     0          0          1      )    f =( -0.2499998 )
                  (     0         -1          1      )       ( -0.2499998 )
                  (    -1          0          1      )       ( -0.2500001 )

 cart.    s(44) = (  0.0000000  1.0000000  0.0000000 )    f =( -0.3535533 )
                  (  0.0000000  0.0000000  1.0000000 )       ( -0.3535533 )
                  ( -1.0000000  0.0000000  0.0000000 )       ( -0.3535531 )


      isym = 45     inv. 120 deg rotation - cart. axis [1,1,1]   

 cryst.   s(45) = (     0         -1          0      )    f =( -0.2499998 )
                  (     0          0         -1      )       ( -0.2499998 )
                  (    -1          0          0      )       ( -0.2499998 )

 cart.    s(45) = (  0.0000000  0.0000000 -1.0000000 )    f =( -0.3535531 )
                  ( -1.0000000  0.0000000  0.0000000 )       ( -0.3535531 )
                  (  0.0000000 -1.0000000  0.0000000 )       ( -0.3535531 )


      isym = 46     inv. 120 deg rotation - cart. axis [-1,1,-1] 

 cryst.   s(46) = (     1          0         -1      )    f =( -0.2500001 )
                  (     1         -1          0      )       ( -0.2499998 )
                  (     1          0          0      )       ( -0.2499998 )

 cart.    s(46) = (  0.0000000  0.0000000 -1.0000000 )    f =( -0.3535531 )
                  (  1.0000000  0.0000000  0.0000000 )       ( -0.3535533 )
                  (  0.0000000  1.0000000  0.0000000 )       ( -0.3535533 )


      isym = 47     inv. 120 deg rotation - cart. axis [1,-1,-1] 

 cryst.   s(47) = (    -1          0          1      )    f =( -0.2499998 )
                  (     0          0          1      )       ( -0.2499998 )
                  (     0         -1          1      )       ( -0.2500001 )

 cart.    s(47) = (  0.0000000  0.0000000  1.0000000 )    f =( -0.3535533 )
                  (  1.0000000  0.0000000  0.0000000 )       ( -0.3535533 )
                  (  0.0000000 -1.0000000  0.0000000 )       ( -0.3535531 )


      isym = 48     inv. 120 deg rotation - cart. axis [-1,-1,1] 

 cryst.   s(48) = (     0          1          0      )    f =( -0.2499998 )
                  (    -1          1          0      )       ( -0.2500001 )
                  (     0          1         -1      )       ( -0.2499998 )

 cart.    s(48) = (  0.0000000  0.0000000  1.0000000 )    f =( -0.3535533 )
                  ( -1.0000000  0.0000000  0.0000000 )       ( -0.3535531 )
                  (  0.0000000  1.0000000  0.0000000 )       ( -0.3535533 )


     point group O_h (m-3m) 
     there are 10 classes
     the character table:

       E     8C3   3C2   6C4   6C2'  i     8S6   3s_h  6S4   6s_d 
A_1g   1.00  1.00  1.00  1.00  1.00  1.00  1.00  1.00  1.00  1.00
A_2g   1.00  1.00  1.00 -1.00 -1.00  1.00  1.00  1.00 -1.00 -1.00
E_g    2.00 -1.00  2.00  0.00  0.00  2.00 -1.00  2.00  0.00  0.00
T_1g   3.00  0.00 -1.00  1.00 -1.00  3.00  0.00 -1.00  1.00 -1.00
T_2g   3.00  0.00 -1.00 -1.00  1.00  3.00  0.00 -1.00 -1.00  1.00
A_1u   1.00  1.00  1.00  1.00  1.00 -1.00 -1.00 -1.00 -1.00 -1.00
A_2u   1.00  1.00  1.00 -1.00 -1.00 -1.00 -1.00 -1.00  1.00  1.00
E_u    2.00 -1.00  2.00  0.00  0.00 -2.00  1.00 -2.00  0.00  0.00
T_1u   3.00  0.00 -1.00  1.00 -1.00 -3.00  0.00  1.00 -1.00  1.00
T_2u   3.00  0.00 -1.00 -1.00  1.00 -3.00  0.00  1.00  1.00 -1.00

     the symmetry operations in each class and the name of the first element:

     E        1
          identity                                               
     8C3     17   19   20   18   24   21   22   23
          120 deg rotation - cart. axis [-1,-1,-1]               
     3C2      2    4    3
          180 deg rotation - cart. axis [0,0,1]                  
     6C4      7    8   15   16   12   11
           90 deg rotation - cart. axis [0,0,-1]                 
     6C2'     5    6   14   13   10    9
          180 deg rotation - cart. axis [1,1,0]                  
     i       25
          inversion                                              
     8S6     41   43   44   42   48   45   46   47
          inv. 120 deg rotation - cart. axis [-1,-1,-1]          
     3s_h    26   28   27
          inv. 180 deg rotation - cart. axis [0,0,1]             
     6S4     31   32   39   40   36   35
          inv.  90 deg rotation - cart. axis [0,0,-1]            
     6s_d    29   30   38   37   34   33
          inv. 180 deg rotation - cart. axis [1,1,0]             

   Cartesian axes

     site n.     atom                  positions (alat units)
         1        Si     tau(   1) = (   1.0606600   1.0606600   1.0606600  )
         2        Si     tau(   2) = (   0.7071067   0.7071067   0.7071067  )

   Crystallographic axes

     site n.     atom                  positions (cryst. coord.)
         1        Si     tau(   1) = (  0.7499999  0.7499999  0.7499999  )
         2        Si     tau(   2) = (  0.4999999  0.4999999  0.4999999  )

     number of k points=    16  Gaussian smearing, width (Ry)=  0.0010
                       cart. coord. in units 2pi/alat
        k(    1) = (   0.0000000   0.0000000   0.0000000), wk =   0.0092593
        k(    2) = (   0.1178511   0.1178511  -0.1178511), wk =   0.0740741
        k(    3) = (   0.2357023   0.2357023  -0.2357023), wk =   0.0740741
        k(    4) = (  -0.3535534  -0.3535534   0.3535534), wk =   0.0370370
        k(    5) = (   0.2357023   0.0000000   0.0000000), wk =   0.0555556
        k(    6) = (   0.3535534   0.1178511  -0.1178511), wk =   0.2222222
        k(    7) = (  -0.2357023  -0.4714045   0.4714045), wk =   0.2222222
        k(    8) = (  -0.1178511  -0.3535534   0.3535534), wk =   0.2222222
        k(    9) = (   0.0000000  -0.2357023   0.2357023), wk =   0.1111111
        k(   10) = (   0.4714045   0.0000000   0.0000000), wk =   0.0555556
        k(   11) = (  -0.1178511  -0.5892557   0.5892557), wk =   0.2222222
        k(   12) = (  -0.0000000  -0.4714045   0.4714045), wk =   0.1111111
        k(   13) = (  -0.7071068   0.0000000   0.0000000), wk =   0.0277778
        k(   14) = (  -0.2357023  -0.4714045   0.7071068), wk =   0.2222222
        k(   15) = (  -0.1178511  -0.3535534   0.5892557), wk =   0.2222222
        k(   16) = (  -0.7071068   0.2357023   0.0000000), wk =   0.1111111

                       cryst. coord.
        k(    1) = (   0.0000000   0.0000000   0.0000000), wk =   0.0092593
        k(    2) = (   0.0000000   0.0000000   0.1666667), wk =   0.0740741
        k(    3) = (   0.0000000   0.0000000   0.3333333), wk =   0.0740741
        k(    4) = (   0.0000000   0.0000000  -0.5000000), wk =   0.0370370
        k(    5) = (   0.0000000   0.1666667   0.1666667), wk =   0.0555556
        k(    6) = (   0.0000000   0.1666667   0.3333333), wk =   0.2222222
        k(    7) = (   0.0000000   0.1666667  -0.5000000), wk =   0.2222222
        k(    8) = (   0.0000000   0.1666667  -0.3333333), wk =   0.2222222
        k(    9) = (   0.0000000   0.1666667  -0.1666667), wk =   0.1111111
        k(   10) = (   0.0000000   0.3333333   0.3333333), wk =   0.0555556
        k(   11) = (   0.0000000   0.3333333  -0.5000000), wk =   0.2222222
        k(   12) = (   0.0000000   0.3333333  -0.3333333), wk =   0.1111111
        k(   13) = (   0.0000000  -0.5000000  -0.5000000), wk =   0.0277778
        k(   14) = (   0.1666667   0.3333333  -0.5000000), wk =   0.2222222
        k(   15) = (   0.1666667   0.3333333  -0.3333333), wk =   0.2222222
        k(   16) = (   0.1666667  -0.5000000  -0.3333333), wk =   0.1111111

     Dense  grid:    12939 G-vectors     FFT dimensions: (  36,  36,  36)

     Dynamical RAM for                 wfc:       0.02 MB

     Dynamical RAM for     wfc (w. buffer):       0.42 MB

     Dynamical RAM for           str. fact:       0.02 MB

     Dynamical RAM for           local pot:       0.00 MB

     Dynamical RAM for          nlocal pot:       0.11 MB

     Dynamical RAM for                qrad:       1.14 MB

     Dynamical RAM for          rho,v,vnew:       0.22 MB

     Dynamical RAM for               rhoin:       0.07 MB

     Dynamical RAM for            rho*nmix:       0.39 MB

     Dynamical RAM for           G-vectors:       0.10 MB

     Dynamical RAM for          h,s,v(r/c):       0.01 MB

     Dynamical RAM for          <psi|beta>:       0.00 MB

     Dynamical RAM for                 psi:       0.05 MB

     Dynamical RAM for                hpsi:       0.05 MB

     Dynamical RAM for                spsi:       0.05 MB

     Dynamical RAM for      wfcinit/wfcrot:       0.05 MB

     Dynamical RAM for           addusdens:       4.64 MB

     Estimated static dynamical RAM per process >       2.39 MB

     Estimated max dynamical RAM per process >       7.42 MB

     Estimated total dynamical RAM >      59.38 MB

     Initial potential from superposition of free atoms

     starting charge       7.9989, renormalised to       8.0000
     Starting wfcs are    8 randomized atomic wfcs
     Checking if some PAW data can be deallocated... 

     total cpu time spent up to now is        0.7 secs

     Self-consistent Calculation

     iteration #  1     ecut=    50.00 Ry     beta= 0.70
     Davidson diagonalization with overlap

---- Real-time Memory Report at c_bands before calling an iterative solver
            43 MiB given to the printing process from OS
             0 MiB allocation reported by mallinfo(arena+hblkhd)
         10431 MiB available memory on the node where the printing process lives
------------------
     ethr =  1.00E-02,  avg # of iterations =  3.7

     Threshold (ethr) on eigenvalues was too large:
     Diagonalizing with lowered threshold

     Davidson diagonalization with overlap

---- Real-time Memory Report at c_bands before calling an iterative solver
            43 MiB given to the printing process from OS
             0 MiB allocation reported by mallinfo(arena+hblkhd)
         10431 MiB available memory on the node where the printing process lives
------------------
     ethr =  6.39E-04,  avg # of iterations =  2.2

     total cpu time spent up to now is        1.1 secs

     total energy              =     -91.27225376 Ry
     estimated scf accuracy    <       0.05534937 Ry

     iteration #  2     ecut=    50.00 Ry     beta= 0.70
     Davidson diagonalization with overlap

---- Real-time Memory Report at c_bands before calling an iterative solver
            45 MiB given to the printing process from OS
             0 MiB allocation reported by mallinfo(arena+hblkhd)
         10422 MiB available memory on the node where the printing process lives
------------------
     ethr =  6.92E-04,  avg # of iterations =  1.8

     total cpu time spent up to now is        1.3 secs

     total energy              =     -91.27510549 Ry
     estimated scf accuracy    <       0.00186972 Ry

     iteration #  3     ecut=    50.00 Ry     beta= 0.70
     Davidson diagonalization with overlap

---- Real-time Memory Report at c_bands before calling an iterative solver
            45 MiB given to the printing process from OS
             0 MiB allocation reported by mallinfo(arena+hblkhd)
         10423 MiB available memory on the node where the printing process lives
------------------
     ethr =  2.34E-05,  avg # of iterations =  4.1

     total cpu time spent up to now is        1.6 secs

     total energy              =     -91.27525486 Ry
     estimated scf accuracy    <       0.00005064 Ry

     iteration #  4     ecut=    50.00 Ry     beta= 0.70
     Davidson diagonalization with overlap

---- Real-time Memory Report at c_bands before calling an iterative solver
            45 MiB given to the printing process from OS
             0 MiB allocation reported by mallinfo(arena+hblkhd)
         10420 MiB available memory on the node where the printing process lives
------------------
     ethr =  6.33E-07,  avg # of iterations =  3.4

     total cpu time spent up to now is        1.9 secs

     total energy              =     -91.27526498 Ry
     estimated scf accuracy    <       0.00000015 Ry

     iteration #  5     ecut=    50.00 Ry     beta= 0.70
     Davidson diagonalization with overlap

---- Real-time Memory Report at c_bands before calling an iterative solver
            45 MiB given to the printing process from OS
             0 MiB allocation reported by mallinfo(arena+hblkhd)
         10419 MiB available memory on the node where the printing process lives
------------------
     ethr =  1.88E-09,  avg # of iterations =  3.8

     total cpu time spent up to now is        2.2 secs

     total energy              =     -91.27526533 Ry
     estimated scf accuracy    <          6.0E-09 Ry

     iteration #  6     ecut=    50.00 Ry     beta= 0.70
     Davidson diagonalization with overlap

---- Real-time Memory Report at c_bands before calling an iterative solver
            45 MiB given to the printing process from OS
             0 MiB allocation reported by mallinfo(arena+hblkhd)
         10425 MiB available memory on the node where the printing process lives
------------------
     ethr =  7.44E-11,  avg # of iterations =  2.1

     total cpu time spent up to now is        2.4 secs

     End of self-consistent calculation

          k = 0.0000 0.0000 0.0000 (  1639 PWs)   bands (ev):

    -5.8348   6.1453   6.1453   6.1453   8.6643   8.6643   8.6643   9.4371

     occupation numbers 
     1.0000   1.0000   1.0000   1.0000   0.0000   0.0000   0.0000   0.0000

          k = 0.1179 0.1179-0.1179 (  1609 PWs)   bands (ev):

    -5.4729   3.7458   5.6907   5.6907   8.4286   9.3147   9.3147  11.5282

     occupation numbers 
     1.0000   1.0000   1.0000   1.0000   0.0000   0.0000   0.0000   0.0000

          k = 0.2357 0.2357-0.2357 (  1616 PWs)   bands (ev):

    -4.4538   0.7819   5.1400   5.1400   7.8298   9.5978   9.5979  13.8533

     occupation numbers 
     1.0000   1.0000   1.0000   1.0000   0.0000   0.0000   0.0000   0.0000

          k =-0.3536-0.3536 0.3536 (  1622 PWs)   bands (ev):

    -3.4903  -0.8641   4.9424   4.9424   7.6027   9.4233   9.4233  13.6665

     occupation numbers 
     1.0000   1.0000   1.0000   1.0000   0.0000   0.0000   0.0000   0.0000

          k = 0.2357 0.0000 0.0000 (  1623 PWs)   bands (ev):

    -5.3498   4.1001   4.9395   4.9395   7.7730  10.3633  10.4556  10.4556

     occupation numbers 
     1.0000   1.0000   1.0000   1.0000   0.0000   0.0000   0.0000   0.0000

          k = 0.3536 0.1179-0.1179 (  1611 PWs)   bands (ev):

    -4.5324   1.6921   4.1294   4.3851   8.0291  10.1351  10.6007  11.1775

     occupation numbers 
     1.0000   1.0000   1.0000   1.0000   0.0000   0.0000   0.0000   0.0000

          k =-0.2357-0.4714 0.4714 (  1607 PWs)   bands (ev):

    -3.3331  -0.4901   3.3395   4.3573   8.0987  10.1934  10.7129  12.4867

     occupation numbers 
     1.0000   1.0000   1.0000   1.0000   0.0000   0.0000   0.0000   0.0000

          k =-0.1179-0.3536 0.3536 (  1610 PWs)   bands (ev):

    -3.7215   0.1137   3.0647   4.8411   8.5189  10.1927  10.3208  13.3446

     occupation numbers 
     1.0000   1.0000   1.0000   1.0000   0.0000   0.0000   0.0000   0.0000

          k = 0.0000-0.2357 0.2357 (  1604 PWs)   bands (ev):

    -4.8832   2.4144   3.6990   5.5795   9.1290   9.6587   9.9268  11.7203

     occupation numbers 
     1.0000   1.0000   1.0000   1.0000   0.0000   0.0000   0.0000   0.0000

          k = 0.4714 0.0000 0.0000 (  1624 PWs)   bands (ev):

    -3.9268   1.1285   3.7099   3.7099   6.7707   8.0242  13.3658  13.3658

     occupation numbers 
     1.0000   1.0000   1.0000   1.0000   0.0000   0.0000   0.0000   0.0000

          k =-0.1179-0.5893 0.5893 (  1627 PWs)   bands (ev):

    -2.7585  -0.4278   2.4702   3.5738   7.1011   8.7710  13.5455  13.5638

     occupation numbers 
     1.0000   1.0000   1.0000   1.0000   0.0000   0.0000   0.0000   0.0000

          k =-0.0000-0.4714 0.4714 (  1612 PWs)   bands (ev):

    -2.5575  -0.6366   1.6775   4.0194   7.6102  11.8576  12.5736  13.1593

     occupation numbers 
     1.0000   1.0000   1.0000   1.0000   0.0000   0.0000   0.0000   0.0000

          k =-0.7071 0.0000 0.0000 (  1604 PWs)   bands (ev):

    -1.6817  -1.6816   3.2741   3.2741   6.7418   6.7418  16.1877  16.1877

     occupation numbers 
     1.0000   1.0000   1.0000   1.0000   0.0000   0.0000   0.0000   0.0000

          k =-0.2357-0.4714 0.7071 (  1610 PWs)   bands (ev):

    -3.5390   0.4930   2.5325   3.8245   8.9231   9.7610  10.3206  13.1617

     occupation numbers 
     1.0000   1.0000   1.0000   1.0000   0.0000   0.0000   0.0000   0.0000

          k =-0.1179-0.3536 0.5893 (  1610 PWs)   bands (ev):

    -2.5470  -0.7134   2.0896   3.3509   9.4103   9.6334  12.1648  12.5975

     occupation numbers 
     1.0000   1.0000   1.0000   1.0000   0.0000   0.0000   0.0000   0.0000

          k =-0.7071 0.2357 0.0000 (  1626 PWs)   bands (ev):

    -1.5581  -1.5581   2.4566   2.4566   8.8053   8.8053  12.8417  12.8417

     occupation numbers 
     1.0000   1.0000   1.0000   1.0000   0.0000   0.0000   0.0000   0.0000

     the Fermi energy is     6.5698 ev

!    total energy              =     -91.27526533 Ry
     total all-electron energy =     -1158.039494 Ry
     estimated scf accuracy    <          5.4E-10 Ry
     smearing contrib. (-TS)   =      -0.00000000 Ry
     internal energy E=F+TS    =     -91.27526533 Ry

     The total energy is F=E-TS. E is the sum of the following terms:
     one-electron contribution =       5.73369682 Ry
     hartree contribution      =       1.08573031 Ry
     xc contribution           =     -12.13813702 Ry
     ewald contribution        =     -16.78748759 Ry
     one-center paw contrib.   =     -69.16906785 Ry
      -> PAW hartree energy AE =       2.96180663 Ry
      -> PAW hartree energy PS =      -2.95029645 Ry
      -> PAW xc energy AE      =     -39.78791356 Ry
      -> PAW xc energy PS      =       5.19186946 Ry
      -> total E_H with PAW    =       1.09724048 Ry
      -> total E_XC with PAW   =     -46.73418112 Ry

     convergence has been achieved in   6 iterations

     Writing all to output data dir ./temp/silicon.save/ :
     XML data file, charge density, pseudopotentials, collected wavefunctions

     init_run     :      0.35s CPU      0.44s WALL (       1 calls)
     electrons    :      1.50s CPU      1.74s WALL (       1 calls)

     Called by init_run:
     wfcinit      :      0.04s CPU      0.04s WALL (       1 calls)
     wfcinit:atom :      0.00s CPU      0.00s WALL (      16 calls)
     wfcinit:wfcr :      0.04s CPU      0.04s WALL (      16 calls)
     potinit      :      0.08s CPU      0.08s WALL (       1 calls)
     hinit0       :      0.19s CPU      0.21s WALL (       1 calls)

     Called by electrons:
     c_bands      :      0.82s CPU      0.93s WALL (       7 calls)
     sum_band     :      0.20s CPU      0.24s WALL (       7 calls)
     v_of_rho     :      0.03s CPU      0.03s WALL (       7 calls)
     v_h          :      0.00s CPU      0.00s WALL (       7 calls)
     v_xc         :      0.03s CPU      0.03s WALL (       7 calls)
     newd         :      0.05s CPU      0.08s WALL (       7 calls)
     PAW_pot      :      0.45s CPU      0.54s WALL (       7 calls)
     mix_rho      :      0.00s CPU      0.00s WALL (       7 calls)

     Called by c_bands:
     init_us_2    :      0.02s CPU      0.02s WALL (     240 calls)
     cegterg      :      0.77s CPU      0.87s WALL (     112 calls)

     Called by sum_band:
     sum_band:wei :      0.00s CPU      0.00s WALL (       7 calls)
     sum_band:loo :      0.12s CPU      0.15s WALL (       7 calls)
     sum_band:buf :      0.00s CPU      0.00s WALL (     112 calls)
     sum_band:ini :      0.01s CPU      0.01s WALL (     112 calls)
     sum_band:cal :      0.02s CPU      0.03s WALL (     112 calls)
     sum_band:bec :      0.00s CPU      0.00s WALL (     112 calls)
     addusdens    :      0.07s CPU      0.07s WALL (       7 calls)
                                        0.00s GPU  (       7 calls)
     addusd:skk   :      0.00s CPU      0.00s WALL (       7 calls)
                                        0.00s GPU  (       7 calls)

     Called by *egterg:
     cdiaghg      :      0.04s CPU      0.05s WALL (     433 calls)
     cegterg:over :      0.04s CPU      0.05s WALL (     337 calls)
     cegterg:upda :      0.01s CPU      0.01s WALL (     337 calls)
     cegterg:last :      0.03s CPU      0.03s WALL (     233 calls)
     h_psi        :      0.61s CPU      0.68s WALL (     465 calls)
     s_psi        :      0.04s CPU      0.05s WALL (     465 calls)
     g_psi        :      0.00s CPU      0.00s WALL (     337 calls)

     Called by h_psi:
     h_psi:calbec :      0.06s CPU      0.06s WALL (     465 calls)
     vloc_psi     :      0.50s CPU      0.57s WALL (     465 calls)
     add_vuspsi   :      0.04s CPU      0.05s WALL (     465 calls)

     General routines
     calbec       :      0.08s CPU      0.09s WALL (     577 calls)
     fft          :      0.13s CPU      0.14s WALL (      78 calls)
     ffts         :      0.00s CPU      0.00s WALL (       7 calls)
     fftw         :      0.54s CPU      0.61s WALL (    5928 calls)

     Parallel routines

     PAW routines
     PAW_pot      :      0.45s CPU      0.54s WALL (       7 calls)
     PAW_symme    :      0.01s CPU      0.01s WALL (      14 calls)

     PWSCF        :      2.09s CPU      2.48s WALL


   This run was terminated on:   7: 0: 4  22Dec2024            

=------------------------------------------------------------------------------=
   JOB DONE.
=------------------------------------------------------------------------------=
