 INFO
nunit      1    1    1
unit   cell
celltype   primcell
shape   parapipedal
 END_INFO
 DIM-GROUP
           3           1
 PRIMVEC
    7.2201553060    0.0626916270    0.0452659840
    1.8321886360    3.1734389180   -0.0000000000
    1.8325720470    1.0575886640    2.9920385180
 CONVVEC
    7.2201553060    0.0626916270    0.0452659840
    1.8321886360    3.1734389180   -0.0000000000
    1.8325720470    1.0575886640    2.9920385180
 PRIMCOORD
           4           1
 25      5.4423807650     3.2047195760     2.2667659380     0.0003359800    -0.0001939800    -0.0001423100
 25      9.0524566320     3.2360677290     2.2894000980     0.0003354200    -0.0001936600    -0.0001420800
 16      3.6785026300     4.2230950710     2.9862756070    -0.0003359000     0.0001939300     0.0001422900
 16      7.2885781460     4.2544435450     3.0089099310    -0.0003355000     0.0001937000     0.0001421000
 CONVCOORD
           4           1
 25      5.4423807650     3.2047195760     2.2667659380
 25      9.0524566320     3.2360677290     2.2894000980
 16      3.6785026300     4.2230950710     2.9862756070
 16      7.2885781460     4.2544435450     3.0089099310
 RECIP-PRIMVEC
    0.1395581236   -0.0805740443   -0.0569966327

   -0.0020533522    0.3163010710   -0.1105445366

   -0.0021113484    0.0012189895    0.3350825876

 RECIP-CONVVEC
    0.1395581236   -0.0805740443   -0.0569966327

   -0.0020533522    0.3163010710   -0.1105445366

   -0.0021113484    0.0012189895    0.3350825876

 WIGNER-SEITZ-PRIMCELL
           6
 -0.2686516E+01 -0.5645646E+00  0.1845248E+01   0.1046263E-03 -0.5773793E+00  0.8164761E+00
  0.1777323E+01 -0.3141767E+01  0.2218160E-01   0.1046263E-03 -0.5773793E+00  0.8164761E+00
  0.1778447E+01 -0.3141128E+01  0.2263326E-01   0.1046263E-03 -0.5773793E+00  0.8164761E+00
  0.2686899E+01 -0.1551286E+01  0.1146790E+01   0.1046263E-03 -0.5773793E+00  0.8164761E+00
 -0.1776940E+01  0.1025917E+01  0.2969857E+01   0.1046263E-03 -0.5773793E+00  0.8164761E+00
 -0.1778063E+01  0.1025278E+01  0.2969405E+01   0.1046263E-03 -0.5773793E+00  0.8164761E+00
           4
 -0.1776940E+01  0.1025917E+01  0.2969857E+01  -0.4924222E+00  0.2842999E+00  0.8226141E+00
 -0.1776948E+01  0.1027208E+01  0.2969406E+01  -0.4924222E+00  0.2842999E+00  0.8226141E+00
 -0.1778071E+01  0.1026569E+01  0.2968954E+01  -0.4924222E+00  0.2842999E+00  0.8226141E+00
 -0.1778063E+01  0.1025278E+01  0.2969405E+01  -0.4924222E+00  0.2842999E+00  0.8226141E+00
           6
 -0.2701068E+01  0.1559462E+01  0.1101524E+01  -0.8660485E+00  0.1599287E+00  0.4736907E+00
 -0.3609520E+01 -0.3038096E-01 -0.2263273E-01  -0.8660485E+00  0.1599287E+00  0.4736907E+00
 -0.3609512E+01 -0.3167177E-01 -0.2218160E-01  -0.8660485E+00  0.1599287E+00  0.4736907E+00
 -0.2686516E+01 -0.5645646E+00  0.1845248E+01  -0.8660485E+00  0.1599287E+00  0.4736907E+00
 -0.1778063E+01  0.1025278E+01  0.2969405E+01  -0.8660485E+00  0.1599287E+00  0.4736907E+00
 -0.1778071E+01  0.1026569E+01  0.2968954E+01  -0.8660485E+00  0.1599287E+00  0.4736907E+00
           6
 -0.1776948E+01  0.1027208E+01  0.2969406E+01   0.5000777E+00  0.2885979E+00  0.8164763E+00
 -0.1776940E+01  0.1025917E+01  0.2969857E+01   0.5000777E+00  0.2885979E+00  0.8164763E+00
  0.2686899E+01 -0.1551286E+01  0.1146790E+01   0.5000777E+00  0.2885979E+00  0.8164763E+00
  0.3609520E+01  0.3038096E-01  0.2263273E-01   0.5000777E+00  0.2885979E+00  0.8164763E+00
  0.3609512E+01  0.3167177E-01  0.2218160E-01   0.5000777E+00  0.2885979E+00  0.8164763E+00
 -0.8543271E+00  0.2608874E+01  0.1845248E+01   0.5000777E+00  0.2885979E+00  0.8164763E+00
           4
 -0.3609512E+01 -0.3167177E-01 -0.2218160E-01  -0.5000006E+00 -0.8660251E+00 -0.4006734E-15
  0.8543271E+00 -0.2608874E+01 -0.1845248E+01  -0.5000006E+00 -0.8660251E+00 -0.4006734E-15
  0.1777323E+01 -0.3141767E+01  0.2218160E-01  -0.5000006E+00 -0.8660251E+00 -0.4006734E-15
 -0.2686516E+01 -0.5645646E+00  0.1845248E+01  -0.5000006E+00 -0.8660251E+00 -0.4006734E-15
           6
  0.8543271E+00 -0.2608874E+01 -0.1845248E+01   0.5715262E+00 -0.6700559E+00 -0.4736908E+00
  0.1776948E+01 -0.1027208E+01 -0.2969406E+01   0.5715262E+00 -0.6700559E+00 -0.4736908E+00
  0.1778071E+01 -0.1026569E+01 -0.2968954E+01   0.5715262E+00 -0.6700559E+00 -0.4736908E+00
  0.2701068E+01 -0.1559462E+01 -0.1101524E+01   0.5715262E+00 -0.6700559E+00 -0.4736908E+00
  0.1778447E+01 -0.3141128E+01  0.2263326E-01   0.5715262E+00 -0.6700559E+00 -0.4736908E+00
  0.1777323E+01 -0.3141767E+01  0.2218160E-01   0.5715262E+00 -0.6700559E+00 -0.4736908E+00
           4
  0.2686899E+01 -0.1551286E+01  0.1146790E+01   0.8660023E+00 -0.4999872E+00  0.7275554E-02
  0.1778447E+01 -0.3141128E+01  0.2263326E-01   0.8660023E+00 -0.4999872E+00  0.7275554E-02
  0.2701068E+01 -0.1559462E+01 -0.1101524E+01   0.8660023E+00 -0.4999872E+00  0.7275554E-02
  0.3609520E+01  0.3038096E-01  0.2263273E-01   0.8660023E+00 -0.4999872E+00  0.7275554E-02
           6
 -0.1778071E+01  0.1026569E+01  0.2968954E+01  -0.5715262E+00  0.6700559E+00  0.4736908E+00
 -0.1776948E+01  0.1027208E+01  0.2969406E+01  -0.5715262E+00  0.6700559E+00  0.4736908E+00
 -0.8543271E+00  0.2608874E+01  0.1845248E+01  -0.5715262E+00  0.6700559E+00  0.4736908E+00
 -0.1777323E+01  0.3141767E+01 -0.2218160E-01  -0.5715262E+00  0.6700559E+00  0.4736908E+00
 -0.1778447E+01  0.3141128E+01 -0.2263326E-01  -0.5715262E+00  0.6700559E+00  0.4736908E+00
 -0.2701068E+01  0.1559462E+01  0.1101524E+01  -0.5715262E+00  0.6700559E+00  0.4736908E+00
           6
 -0.2686899E+01  0.1551286E+01 -0.1146790E+01  -0.5000777E+00 -0.2885979E+00 -0.8164763E+00
  0.1776940E+01 -0.1025917E+01 -0.2969857E+01  -0.5000777E+00 -0.2885979E+00 -0.8164763E+00
  0.1776948E+01 -0.1027208E+01 -0.2969406E+01  -0.5000777E+00 -0.2885979E+00 -0.8164763E+00
  0.8543271E+00 -0.2608874E+01 -0.1845248E+01  -0.5000777E+00 -0.2885979E+00 -0.8164763E+00
 -0.3609512E+01 -0.3167177E-01 -0.2218160E-01  -0.5000777E+00 -0.2885979E+00 -0.8164763E+00
 -0.3609520E+01 -0.3038096E-01 -0.2263273E-01  -0.5000777E+00 -0.2885979E+00 -0.8164763E+00
           4
 -0.1778447E+01  0.3141128E+01 -0.2263326E-01  -0.8660023E+00  0.4999872E+00 -0.7275554E-02
 -0.2686899E+01  0.1551286E+01 -0.1146790E+01  -0.8660023E+00  0.4999872E+00 -0.7275554E-02
 -0.3609520E+01 -0.3038096E-01 -0.2263273E-01  -0.8660023E+00  0.4999872E+00 -0.7275554E-02
 -0.2701068E+01  0.1559462E+01  0.1101524E+01  -0.8660023E+00  0.4999872E+00 -0.7275554E-02
           6
  0.3609512E+01  0.3167177E-01  0.2218160E-01   0.8660485E+00 -0.1599287E+00 -0.4736907E+00
  0.3609520E+01  0.3038096E-01  0.2263273E-01   0.8660485E+00 -0.1599287E+00 -0.4736907E+00
  0.2701068E+01 -0.1559462E+01 -0.1101524E+01   0.8660485E+00 -0.1599287E+00 -0.4736907E+00
  0.1778071E+01 -0.1026569E+01 -0.2968954E+01   0.8660485E+00 -0.1599287E+00 -0.4736907E+00
  0.1778063E+01 -0.1025278E+01 -0.2969405E+01   0.8660485E+00 -0.1599287E+00 -0.4736907E+00
  0.2686516E+01  0.5645646E+00 -0.1845248E+01   0.8660485E+00 -0.1599287E+00 -0.4736907E+00
           4
 -0.8543271E+00  0.2608874E+01  0.1845248E+01   0.5000006E+00  0.8660251E+00 -0.1151636E-15
  0.3609512E+01  0.3167177E-01  0.2218160E-01   0.5000006E+00  0.8660251E+00 -0.1151636E-15
  0.2686516E+01  0.5645646E+00 -0.1845248E+01   0.5000006E+00  0.8660251E+00 -0.1151636E-15
 -0.1777323E+01  0.3141767E+01 -0.2218160E-01   0.5000006E+00  0.8660251E+00 -0.1151636E-15
           4
  0.1776948E+01 -0.1027208E+01 -0.2969406E+01   0.4924222E+00 -0.2842999E+00 -0.8226141E+00
  0.1776940E+01 -0.1025917E+01 -0.2969857E+01   0.4924222E+00 -0.2842999E+00 -0.8226141E+00
  0.1778063E+01 -0.1025278E+01 -0.2969405E+01   0.4924222E+00 -0.2842999E+00 -0.8226141E+00
  0.1778071E+01 -0.1026569E+01 -0.2968954E+01   0.4924222E+00 -0.2842999E+00 -0.8226141E+00
           6
 -0.1778447E+01  0.3141128E+01 -0.2263326E-01  -0.1046263E-03  0.5773793E+00 -0.8164761E+00
 -0.1777323E+01  0.3141767E+01 -0.2218160E-01  -0.1046263E-03  0.5773793E+00 -0.8164761E+00
  0.2686516E+01  0.5645646E+00 -0.1845248E+01  -0.1046263E-03  0.5773793E+00 -0.8164761E+00
  0.1778063E+01 -0.1025278E+01 -0.2969405E+01  -0.1046263E-03  0.5773793E+00 -0.8164761E+00
  0.1776940E+01 -0.1025917E+01 -0.2969857E+01  -0.1046263E-03  0.5773793E+00 -0.8164761E+00
 -0.2686899E+01  0.1551286E+01 -0.1146790E+01  -0.1046263E-03  0.5773793E+00 -0.8164761E+00
 WIGNER-SEITZ-PRIMCELL_END
 WIGNER-SEITZ-CONVCELL
           6
 -0.2686516E+01 -0.5645646E+00  0.1845248E+01   0.1046263E-03 -0.5773793E+00  0.8164761E+00
  0.1777323E+01 -0.3141767E+01  0.2218160E-01   0.1046263E-03 -0.5773793E+00  0.8164761E+00
  0.1778447E+01 -0.3141128E+01  0.2263326E-01   0.1046263E-03 -0.5773793E+00  0.8164761E+00
  0.2686899E+01 -0.1551286E+01  0.1146790E+01   0.1046263E-03 -0.5773793E+00  0.8164761E+00
 -0.1776940E+01  0.1025917E+01  0.2969857E+01   0.1046263E-03 -0.5773793E+00  0.8164761E+00
 -0.1778063E+01  0.1025278E+01  0.2969405E+01   0.1046263E-03 -0.5773793E+00  0.8164761E+00
           4
 -0.1776940E+01  0.1025917E+01  0.2969857E+01  -0.4924222E+00  0.2842999E+00  0.8226141E+00
 -0.1776948E+01  0.1027208E+01  0.2969406E+01  -0.4924222E+00  0.2842999E+00  0.8226141E+00
 -0.1778071E+01  0.1026569E+01  0.2968954E+01  -0.4924222E+00  0.2842999E+00  0.8226141E+00
 -0.1778063E+01  0.1025278E+01  0.2969405E+01  -0.4924222E+00  0.2842999E+00  0.8226141E+00
           6
 -0.2701068E+01  0.1559462E+01  0.1101524E+01  -0.8660485E+00  0.1599287E+00  0.4736907E+00
 -0.3609520E+01 -0.3038096E-01 -0.2263273E-01  -0.8660485E+00  0.1599287E+00  0.4736907E+00
 -0.3609512E+01 -0.3167177E-01 -0.2218160E-01  -0.8660485E+00  0.1599287E+00  0.4736907E+00
 -0.2686516E+01 -0.5645646E+00  0.1845248E+01  -0.8660485E+00  0.1599287E+00  0.4736907E+00
 -0.1778063E+01  0.1025278E+01  0.2969405E+01  -0.8660485E+00  0.1599287E+00  0.4736907E+00
 -0.1778071E+01  0.1026569E+01  0.2968954E+01  -0.8660485E+00  0.1599287E+00  0.4736907E+00
           6
 -0.1776948E+01  0.1027208E+01  0.2969406E+01   0.5000777E+00  0.2885979E+00  0.8164763E+00
 -0.1776940E+01  0.1025917E+01  0.2969857E+01   0.5000777E+00  0.2885979E+00  0.8164763E+00
  0.2686899E+01 -0.1551286E+01  0.1146790E+01   0.5000777E+00  0.2885979E+00  0.8164763E+00
  0.3609520E+01  0.3038096E-01  0.2263273E-01   0.5000777E+00  0.2885979E+00  0.8164763E+00
  0.3609512E+01  0.3167177E-01  0.2218160E-01   0.5000777E+00  0.2885979E+00  0.8164763E+00
 -0.8543271E+00  0.2608874E+01  0.1845248E+01   0.5000777E+00  0.2885979E+00  0.8164763E+00
           4
 -0.3609512E+01 -0.3167177E-01 -0.2218160E-01  -0.5000006E+00 -0.8660251E+00 -0.4006734E-15
  0.8543271E+00 -0.2608874E+01 -0.1845248E+01  -0.5000006E+00 -0.8660251E+00 -0.4006734E-15
  0.1777323E+01 -0.3141767E+01  0.2218160E-01  -0.5000006E+00 -0.8660251E+00 -0.4006734E-15
 -0.2686516E+01 -0.5645646E+00  0.1845248E+01  -0.5000006E+00 -0.8660251E+00 -0.4006734E-15
           6
  0.8543271E+00 -0.2608874E+01 -0.1845248E+01   0.5715262E+00 -0.6700559E+00 -0.4736908E+00
  0.1776948E+01 -0.1027208E+01 -0.2969406E+01   0.5715262E+00 -0.6700559E+00 -0.4736908E+00
  0.1778071E+01 -0.1026569E+01 -0.2968954E+01   0.5715262E+00 -0.6700559E+00 -0.4736908E+00
  0.2701068E+01 -0.1559462E+01 -0.1101524E+01   0.5715262E+00 -0.6700559E+00 -0.4736908E+00
  0.1778447E+01 -0.3141128E+01  0.2263326E-01   0.5715262E+00 -0.6700559E+00 -0.4736908E+00
  0.1777323E+01 -0.3141767E+01  0.2218160E-01   0.5715262E+00 -0.6700559E+00 -0.4736908E+00
           4
  0.2686899E+01 -0.1551286E+01  0.1146790E+01   0.8660023E+00 -0.4999872E+00  0.7275554E-02
  0.1778447E+01 -0.3141128E+01  0.2263326E-01   0.8660023E+00 -0.4999872E+00  0.7275554E-02
  0.2701068E+01 -0.1559462E+01 -0.1101524E+01   0.8660023E+00 -0.4999872E+00  0.7275554E-02
  0.3609520E+01  0.3038096E-01  0.2263273E-01   0.8660023E+00 -0.4999872E+00  0.7275554E-02
           6
 -0.1778071E+01  0.1026569E+01  0.2968954E+01  -0.5715262E+00  0.6700559E+00  0.4736908E+00
 -0.1776948E+01  0.1027208E+01  0.2969406E+01  -0.5715262E+00  0.6700559E+00  0.4736908E+00
 -0.8543271E+00  0.2608874E+01  0.1845248E+01  -0.5715262E+00  0.6700559E+00  0.4736908E+00
 -0.1777323E+01  0.3141767E+01 -0.2218160E-01  -0.5715262E+00  0.6700559E+00  0.4736908E+00
 -0.1778447E+01  0.3141128E+01 -0.2263326E-01  -0.5715262E+00  0.6700559E+00  0.4736908E+00
 -0.2701068E+01  0.1559462E+01  0.1101524E+01  -0.5715262E+00  0.6700559E+00  0.4736908E+00
           6
 -0.2686899E+01  0.1551286E+01 -0.1146790E+01  -0.5000777E+00 -0.2885979E+00 -0.8164763E+00
  0.1776940E+01 -0.1025917E+01 -0.2969857E+01  -0.5000777E+00 -0.2885979E+00 -0.8164763E+00
  0.1776948E+01 -0.1027208E+01 -0.2969406E+01  -0.5000777E+00 -0.2885979E+00 -0.8164763E+00
  0.8543271E+00 -0.2608874E+01 -0.1845248E+01  -0.5000777E+00 -0.2885979E+00 -0.8164763E+00
 -0.3609512E+01 -0.3167177E-01 -0.2218160E-01  -0.5000777E+00 -0.2885979E+00 -0.8164763E+00
 -0.3609520E+01 -0.3038096E-01 -0.2263273E-01  -0.5000777E+00 -0.2885979E+00 -0.8164763E+00
           4
 -0.1778447E+01  0.3141128E+01 -0.2263326E-01  -0.8660023E+00  0.4999872E+00 -0.7275554E-02
 -0.2686899E+01  0.1551286E+01 -0.1146790E+01  -0.8660023E+00  0.4999872E+00 -0.7275554E-02
 -0.3609520E+01 -0.3038096E-01 -0.2263273E-01  -0.8660023E+00  0.4999872E+00 -0.7275554E-02
 -0.2701068E+01  0.1559462E+01  0.1101524E+01  -0.8660023E+00  0.4999872E+00 -0.7275554E-02
           6
  0.3609512E+01  0.3167177E-01  0.2218160E-01   0.8660485E+00 -0.1599287E+00 -0.4736907E+00
  0.3609520E+01  0.3038096E-01  0.2263273E-01   0.8660485E+00 -0.1599287E+00 -0.4736907E+00
  0.2701068E+01 -0.1559462E+01 -0.1101524E+01   0.8660485E+00 -0.1599287E+00 -0.4736907E+00
  0.1778071E+01 -0.1026569E+01 -0.2968954E+01   0.8660485E+00 -0.1599287E+00 -0.4736907E+00
  0.1778063E+01 -0.1025278E+01 -0.2969405E+01   0.8660485E+00 -0.1599287E+00 -0.4736907E+00
  0.2686516E+01  0.5645646E+00 -0.1845248E+01   0.8660485E+00 -0.1599287E+00 -0.4736907E+00
           4
 -0.8543271E+00  0.2608874E+01  0.1845248E+01   0.5000006E+00  0.8660251E+00 -0.1151636E-15
  0.3609512E+01  0.3167177E-01  0.2218160E-01   0.5000006E+00  0.8660251E+00 -0.1151636E-15
  0.2686516E+01  0.5645646E+00 -0.1845248E+01   0.5000006E+00  0.8660251E+00 -0.1151636E-15
 -0.1777323E+01  0.3141767E+01 -0.2218160E-01   0.5000006E+00  0.8660251E+00 -0.1151636E-15
           4
  0.1776948E+01 -0.1027208E+01 -0.2969406E+01   0.4924222E+00 -0.2842999E+00 -0.8226141E+00
  0.1776940E+01 -0.1025917E+01 -0.2969857E+01   0.4924222E+00 -0.2842999E+00 -0.8226141E+00
  0.1778063E+01 -0.1025278E+01 -0.2969405E+01   0.4924222E+00 -0.2842999E+00 -0.8226141E+00
  0.1778071E+01 -0.1026569E+01 -0.2968954E+01   0.4924222E+00 -0.2842999E+00 -0.8226141E+00
           6
 -0.1778447E+01  0.3141128E+01 -0.2263326E-01  -0.1046263E-03  0.5773793E+00 -0.8164761E+00
 -0.1777323E+01  0.3141767E+01 -0.2218160E-01  -0.1046263E-03  0.5773793E+00 -0.8164761E+00
  0.2686516E+01  0.5645646E+00 -0.1845248E+01  -0.1046263E-03  0.5773793E+00 -0.8164761E+00
  0.1778063E+01 -0.1025278E+01 -0.2969405E+01  -0.1046263E-03  0.5773793E+00 -0.8164761E+00
  0.1776940E+01 -0.1025917E+01 -0.2969857E+01  -0.1046263E-03  0.5773793E+00 -0.8164761E+00
 -0.2686899E+01  0.1551286E+01 -0.1146790E+01  -0.1046263E-03  0.5773793E+00 -0.8164761E+00
 WIGNER-SEITZ-CONVCELL_END
 BRILLOUIN-ZONE-PRIMCELL
           6
  0.1523374E-01  0.1875332E+00  0.2849839E-01  -0.8164608E+00  0.4713846E+00  0.3334490E+00
 -0.6979292E-01  0.1384638E+00 -0.1103245E+00  -0.8164608E+00  0.4713846E+00  0.3334490E+00
 -0.1548096E+00 -0.8789255E-02 -0.1103245E+00  -0.8164608E+00  0.4713846E+00  0.3334490E+00
 -0.1547919E+00 -0.1069592E+00  0.2849824E-01  -0.8164608E+00  0.4713846E+00  0.3334490E+00
 -0.6976521E-01 -0.5788978E-01  0.1673212E+00  -0.8164608E+00  0.4713846E+00  0.3334490E+00
  0.1525153E-01  0.8936330E-01  0.1673212E+00  -0.8164608E+00  0.4713846E+00  0.3334490E+00
           4
 -0.1736287E-01 -0.8814431E-01  0.1677614E+00  -0.6300812E-02  0.3637781E-02  0.9999735E+00
  0.6765386E-01  0.5910877E-01  0.1677614E+00  -0.6300812E-02  0.3637781E-02  0.9999735E+00
  0.1525153E-01  0.8936330E-01  0.1673212E+00  -0.6300812E-02  0.3637781E-02  0.9999735E+00
 -0.6976521E-01 -0.5788978E-01  0.1673212E+00  -0.6300812E-02  0.3637781E-02  0.9999735E+00
           6
  0.1201597E+00  0.4941279E-01  0.1390430E+00   0.4228054E+00  0.7399329E+00  0.5231968E+00
  0.1201419E+00  0.1475827E+00  0.2202487E-03   0.4228054E+00  0.7399329E+00  0.5231968E+00
  0.6773956E-01  0.1778372E+00 -0.2199996E-03   0.4228054E+00  0.7399329E+00  0.5231968E+00
  0.1523374E-01  0.1875332E+00  0.2849839E-01   0.4228054E+00  0.7399329E+00  0.5231968E+00
  0.1525153E-01  0.8936330E-01  0.1673212E+00   0.4228054E+00  0.7399329E+00  0.5231968E+00
  0.6765386E-01  0.5910877E-01  0.1677614E+00   0.4228054E+00  0.7399329E+00  0.5231968E+00
           6
 -0.1736287E-01 -0.8814431E-01  0.1677614E+00  -0.4293988E+00 -0.7361265E+00  0.5231963E+00
 -0.6976521E-01 -0.5788978E-01  0.1673212E+00  -0.4293988E+00 -0.7361265E+00  0.5231963E+00
 -0.1547919E+00 -0.1069592E+00  0.2849824E-01  -0.4293988E+00 -0.7361265E+00  0.5231963E+00
 -0.1201419E+00 -0.1475827E+00 -0.2202487E-03  -0.4293988E+00 -0.7361265E+00  0.5231963E+00
 -0.6773956E-01 -0.1778372E+00  0.2199996E-03  -0.4293988E+00 -0.7361265E+00  0.5231963E+00
  0.1728709E-01 -0.1287678E+00  0.1390429E+00  -0.4293988E+00 -0.7361265E+00  0.5231963E+00
           4
  0.6773956E-01  0.1778372E+00 -0.2199996E-03  -0.6128162E-02  0.9439902E+00 -0.3299166E+00
 -0.1728709E-01  0.1287678E+00 -0.1390429E+00  -0.6128162E-02  0.9439902E+00 -0.3299166E+00
 -0.6979292E-01  0.1384638E+00 -0.1103245E+00  -0.6128162E-02  0.9439902E+00 -0.3299166E+00
  0.1523374E-01  0.1875332E+00  0.2849839E-01  -0.6128162E-02  0.9439902E+00 -0.3299166E+00
           6
 -0.1728709E-01  0.1287678E+00 -0.1390429E+00  -0.4292684E+00  0.2478386E+00 -0.8685072E+00
  0.1736287E-01  0.8814431E-01 -0.1677614E+00  -0.4292684E+00  0.2478386E+00 -0.8685072E+00
 -0.6765386E-01 -0.5910877E-01 -0.1677614E+00  -0.4292684E+00  0.2478386E+00 -0.8685072E+00
 -0.1201597E+00 -0.4941279E-01 -0.1390430E+00  -0.4292684E+00  0.2478386E+00 -0.8685072E+00
 -0.1548096E+00 -0.8789255E-02 -0.1103245E+00  -0.4292684E+00  0.2478386E+00 -0.8685072E+00
 -0.6979292E-01  0.1384638E+00 -0.1103245E+00  -0.4292684E+00  0.2478386E+00 -0.8685072E+00
           4
 -0.1547919E+00 -0.1069592E+00  0.2849824E-01  -0.8205838E+00 -0.4666870E+00 -0.3299173E+00
 -0.1548096E+00 -0.8789255E-02 -0.1103245E+00  -0.8205838E+00 -0.4666870E+00 -0.3299173E+00
 -0.1201597E+00 -0.4941279E-01 -0.1390430E+00  -0.8205838E+00 -0.4666870E+00 -0.3299173E+00
 -0.1201419E+00 -0.1475827E+00 -0.2202487E-03  -0.8205838E+00 -0.4666870E+00 -0.3299173E+00
           6
  0.6765386E-01  0.5910877E-01  0.1677614E+00   0.4292684E+00 -0.2478386E+00  0.8685072E+00
 -0.1736287E-01 -0.8814431E-01  0.1677614E+00   0.4292684E+00 -0.2478386E+00  0.8685072E+00
  0.1728709E-01 -0.1287678E+00  0.1390429E+00   0.4292684E+00 -0.2478386E+00  0.8685072E+00
  0.6979292E-01 -0.1384638E+00  0.1103245E+00   0.4292684E+00 -0.2478386E+00  0.8685072E+00
  0.1548096E+00  0.8789255E-02  0.1103245E+00   0.4292684E+00 -0.2478386E+00  0.8685072E+00
  0.1201597E+00  0.4941279E-01  0.1390430E+00   0.4292684E+00 -0.2478386E+00  0.8685072E+00
           6
  0.1547919E+00  0.1069592E+00 -0.2849824E-01   0.4293988E+00  0.7361265E+00 -0.5231963E+00
  0.6976521E-01  0.5788978E-01 -0.1673212E+00   0.4293988E+00  0.7361265E+00 -0.5231963E+00
  0.1736287E-01  0.8814431E-01 -0.1677614E+00   0.4293988E+00  0.7361265E+00 -0.5231963E+00
 -0.1728709E-01  0.1287678E+00 -0.1390429E+00   0.4293988E+00  0.7361265E+00 -0.5231963E+00
  0.6773956E-01  0.1778372E+00 -0.2199996E-03   0.4293988E+00  0.7361265E+00 -0.5231963E+00
  0.1201419E+00  0.1475827E+00  0.2202487E-03   0.4293988E+00  0.7361265E+00 -0.5231963E+00
           4
  0.1548096E+00  0.8789255E-02  0.1103245E+00   0.8205838E+00  0.4666870E+00  0.3299173E+00
  0.1547919E+00  0.1069592E+00 -0.2849824E-01   0.8205838E+00  0.4666870E+00  0.3299173E+00
  0.1201419E+00  0.1475827E+00  0.2202487E-03   0.8205838E+00  0.4666870E+00  0.3299173E+00
  0.1201597E+00  0.4941279E-01  0.1390430E+00   0.8205838E+00  0.4666870E+00  0.3299173E+00
           6
 -0.6773956E-01 -0.1778372E+00  0.2199996E-03  -0.4228054E+00 -0.7399329E+00 -0.5231968E+00
 -0.1201419E+00 -0.1475827E+00 -0.2202487E-03  -0.4228054E+00 -0.7399329E+00 -0.5231968E+00
 -0.1201597E+00 -0.4941279E-01 -0.1390430E+00  -0.4228054E+00 -0.7399329E+00 -0.5231968E+00
 -0.6765386E-01 -0.5910877E-01 -0.1677614E+00  -0.4228054E+00 -0.7399329E+00 -0.5231968E+00
 -0.1525153E-01 -0.8936330E-01 -0.1673212E+00  -0.4228054E+00 -0.7399329E+00 -0.5231968E+00
 -0.1523374E-01 -0.1875332E+00 -0.2849839E-01  -0.4228054E+00 -0.7399329E+00 -0.5231968E+00
           4
  0.1728709E-01 -0.1287678E+00  0.1390429E+00   0.6128162E-02 -0.9439902E+00  0.3299166E+00
 -0.6773956E-01 -0.1778372E+00  0.2199996E-03   0.6128162E-02 -0.9439902E+00  0.3299166E+00
 -0.1523374E-01 -0.1875332E+00 -0.2849839E-01   0.6128162E-02 -0.9439902E+00  0.3299166E+00
  0.6979292E-01 -0.1384638E+00  0.1103245E+00   0.6128162E-02 -0.9439902E+00  0.3299166E+00
           4
 -0.6765386E-01 -0.5910877E-01 -0.1677614E+00   0.6300812E-02 -0.3637781E-02 -0.9999735E+00
  0.1736287E-01  0.8814431E-01 -0.1677614E+00   0.6300812E-02 -0.3637781E-02 -0.9999735E+00
  0.6976521E-01  0.5788978E-01 -0.1673212E+00   0.6300812E-02 -0.3637781E-02 -0.9999735E+00
 -0.1525153E-01 -0.8936330E-01 -0.1673212E+00   0.6300812E-02 -0.3637781E-02 -0.9999735E+00
           6
  0.1548096E+00  0.8789255E-02  0.1103245E+00   0.8164608E+00 -0.4713846E+00 -0.3334490E+00
  0.6979292E-01 -0.1384638E+00  0.1103245E+00   0.8164608E+00 -0.4713846E+00 -0.3334490E+00
 -0.1523374E-01 -0.1875332E+00 -0.2849839E-01   0.8164608E+00 -0.4713846E+00 -0.3334490E+00
 -0.1525153E-01 -0.8936330E-01 -0.1673212E+00   0.8164608E+00 -0.4713846E+00 -0.3334490E+00
  0.6976521E-01  0.5788978E-01 -0.1673212E+00   0.8164608E+00 -0.4713846E+00 -0.3334490E+00
  0.1547919E+00  0.1069592E+00 -0.2849824E-01   0.8164608E+00 -0.4713846E+00 -0.3334490E+00
 BRILLOUIN-ZONE-PRIMCELL_END
 BRILLOUIN-ZONE-CONVCELL
           6
  0.1523374E-01  0.1875332E+00  0.2849839E-01  -0.8164608E+00  0.4713846E+00  0.3334490E+00
 -0.6979292E-01  0.1384638E+00 -0.1103245E+00  -0.8164608E+00  0.4713846E+00  0.3334490E+00
 -0.1548096E+00 -0.8789255E-02 -0.1103245E+00  -0.8164608E+00  0.4713846E+00  0.3334490E+00
 -0.1547919E+00 -0.1069592E+00  0.2849824E-01  -0.8164608E+00  0.4713846E+00  0.3334490E+00
 -0.6976521E-01 -0.5788978E-01  0.1673212E+00  -0.8164608E+00  0.4713846E+00  0.3334490E+00
  0.1525153E-01  0.8936330E-01  0.1673212E+00  -0.8164608E+00  0.4713846E+00  0.3334490E+00
           4
 -0.1736287E-01 -0.8814431E-01  0.1677614E+00  -0.6300812E-02  0.3637781E-02  0.9999735E+00
  0.6765386E-01  0.5910877E-01  0.1677614E+00  -0.6300812E-02  0.3637781E-02  0.9999735E+00
  0.1525153E-01  0.8936330E-01  0.1673212E+00  -0.6300812E-02  0.3637781E-02  0.9999735E+00
 -0.6976521E-01 -0.5788978E-01  0.1673212E+00  -0.6300812E-02  0.3637781E-02  0.9999735E+00
           6
  0.1201597E+00  0.4941279E-01  0.1390430E+00   0.4228054E+00  0.7399329E+00  0.5231968E+00
  0.1201419E+00  0.1475827E+00  0.2202487E-03   0.4228054E+00  0.7399329E+00  0.5231968E+00
  0.6773956E-01  0.1778372E+00 -0.2199996E-03   0.4228054E+00  0.7399329E+00  0.5231968E+00
  0.1523374E-01  0.1875332E+00  0.2849839E-01   0.4228054E+00  0.7399329E+00  0.5231968E+00
  0.1525153E-01  0.8936330E-01  0.1673212E+00   0.4228054E+00  0.7399329E+00  0.5231968E+00
  0.6765386E-01  0.5910877E-01  0.1677614E+00   0.4228054E+00  0.7399329E+00  0.5231968E+00
           6
 -0.1736287E-01 -0.8814431E-01  0.1677614E+00  -0.4293988E+00 -0.7361265E+00  0.5231963E+00
 -0.6976521E-01 -0.5788978E-01  0.1673212E+00  -0.4293988E+00 -0.7361265E+00  0.5231963E+00
 -0.1547919E+00 -0.1069592E+00  0.2849824E-01  -0.4293988E+00 -0.7361265E+00  0.5231963E+00
 -0.1201419E+00 -0.1475827E+00 -0.2202487E-03  -0.4293988E+00 -0.7361265E+00  0.5231963E+00
 -0.6773956E-01 -0.1778372E+00  0.2199996E-03  -0.4293988E+00 -0.7361265E+00  0.5231963E+00
  0.1728709E-01 -0.1287678E+00  0.1390429E+00  -0.4293988E+00 -0.7361265E+00  0.5231963E+00
           4
  0.6773956E-01  0.1778372E+00 -0.2199996E-03  -0.6128162E-02  0.9439902E+00 -0.3299166E+00
 -0.1728709E-01  0.1287678E+00 -0.1390429E+00  -0.6128162E-02  0.9439902E+00 -0.3299166E+00
 -0.6979292E-01  0.1384638E+00 -0.1103245E+00  -0.6128162E-02  0.9439902E+00 -0.3299166E+00
  0.1523374E-01  0.1875332E+00  0.2849839E-01  -0.6128162E-02  0.9439902E+00 -0.3299166E+00
           6
 -0.1728709E-01  0.1287678E+00 -0.1390429E+00  -0.4292684E+00  0.2478386E+00 -0.8685072E+00
  0.1736287E-01  0.8814431E-01 -0.1677614E+00  -0.4292684E+00  0.2478386E+00 -0.8685072E+00
 -0.6765386E-01 -0.5910877E-01 -0.1677614E+00  -0.4292684E+00  0.2478386E+00 -0.8685072E+00
 -0.1201597E+00 -0.4941279E-01 -0.1390430E+00  -0.4292684E+00  0.2478386E+00 -0.8685072E+00
 -0.1548096E+00 -0.8789255E-02 -0.1103245E+00  -0.4292684E+00  0.2478386E+00 -0.8685072E+00
 -0.6979292E-01  0.1384638E+00 -0.1103245E+00  -0.4292684E+00  0.2478386E+00 -0.8685072E+00
           4
 -0.1547919E+00 -0.1069592E+00  0.2849824E-01  -0.8205838E+00 -0.4666870E+00 -0.3299173E+00
 -0.1548096E+00 -0.8789255E-02 -0.1103245E+00  -0.8205838E+00 -0.4666870E+00 -0.3299173E+00
 -0.1201597E+00 -0.4941279E-01 -0.1390430E+00  -0.8205838E+00 -0.4666870E+00 -0.3299173E+00
 -0.1201419E+00 -0.1475827E+00 -0.2202487E-03  -0.8205838E+00 -0.4666870E+00 -0.3299173E+00
           6
  0.6765386E-01  0.5910877E-01  0.1677614E+00   0.4292684E+00 -0.2478386E+00  0.8685072E+00
 -0.1736287E-01 -0.8814431E-01  0.1677614E+00   0.4292684E+00 -0.2478386E+00  0.8685072E+00
  0.1728709E-01 -0.1287678E+00  0.1390429E+00   0.4292684E+00 -0.2478386E+00  0.8685072E+00
  0.6979292E-01 -0.1384638E+00  0.1103245E+00   0.4292684E+00 -0.2478386E+00  0.8685072E+00
  0.1548096E+00  0.8789255E-02  0.1103245E+00   0.4292684E+00 -0.2478386E+00  0.8685072E+00
  0.1201597E+00  0.4941279E-01  0.1390430E+00   0.4292684E+00 -0.2478386E+00  0.8685072E+00
           6
  0.1547919E+00  0.1069592E+00 -0.2849824E-01   0.4293988E+00  0.7361265E+00 -0.5231963E+00
  0.6976521E-01  0.5788978E-01 -0.1673212E+00   0.4293988E+00  0.7361265E+00 -0.5231963E+00
  0.1736287E-01  0.8814431E-01 -0.1677614E+00   0.4293988E+00  0.7361265E+00 -0.5231963E+00
 -0.1728709E-01  0.1287678E+00 -0.1390429E+00   0.4293988E+00  0.7361265E+00 -0.5231963E+00
  0.6773956E-01  0.1778372E+00 -0.2199996E-03   0.4293988E+00  0.7361265E+00 -0.5231963E+00
  0.1201419E+00  0.1475827E+00  0.2202487E-03   0.4293988E+00  0.7361265E+00 -0.5231963E+00
           4
  0.1548096E+00  0.8789255E-02  0.1103245E+00   0.8205838E+00  0.4666870E+00  0.3299173E+00
  0.1547919E+00  0.1069592E+00 -0.2849824E-01   0.8205838E+00  0.4666870E+00  0.3299173E+00
  0.1201419E+00  0.1475827E+00  0.2202487E-03   0.8205838E+00  0.4666870E+00  0.3299173E+00
  0.1201597E+00  0.4941279E-01  0.1390430E+00   0.8205838E+00  0.4666870E+00  0.3299173E+00
           6
 -0.6773956E-01 -0.1778372E+00  0.2199996E-03  -0.4228054E+00 -0.7399329E+00 -0.5231968E+00
 -0.1201419E+00 -0.1475827E+00 -0.2202487E-03  -0.4228054E+00 -0.7399329E+00 -0.5231968E+00
 -0.1201597E+00 -0.4941279E-01 -0.1390430E+00  -0.4228054E+00 -0.7399329E+00 -0.5231968E+00
 -0.6765386E-01 -0.5910877E-01 -0.1677614E+00  -0.4228054E+00 -0.7399329E+00 -0.5231968E+00
 -0.1525153E-01 -0.8936330E-01 -0.1673212E+00  -0.4228054E+00 -0.7399329E+00 -0.5231968E+00
 -0.1523374E-01 -0.1875332E+00 -0.2849839E-01  -0.4228054E+00 -0.7399329E+00 -0.5231968E+00
           4
  0.1728709E-01 -0.1287678E+00  0.1390429E+00   0.6128162E-02 -0.9439902E+00  0.3299166E+00
 -0.6773956E-01 -0.1778372E+00  0.2199996E-03   0.6128162E-02 -0.9439902E+00  0.3299166E+00
 -0.1523374E-01 -0.1875332E+00 -0.2849839E-01   0.6128162E-02 -0.9439902E+00  0.3299166E+00
  0.6979292E-01 -0.1384638E+00  0.1103245E+00   0.6128162E-02 -0.9439902E+00  0.3299166E+00
           4
 -0.6765386E-01 -0.5910877E-01 -0.1677614E+00   0.6300812E-02 -0.3637781E-02 -0.9999735E+00
  0.1736287E-01  0.8814431E-01 -0.1677614E+00   0.6300812E-02 -0.3637781E-02 -0.9999735E+00
  0.6976521E-01  0.5788978E-01 -0.1673212E+00   0.6300812E-02 -0.3637781E-02 -0.9999735E+00
 -0.1525153E-01 -0.8936330E-01 -0.1673212E+00   0.6300812E-02 -0.3637781E-02 -0.9999735E+00
           6
  0.1548096E+00  0.8789255E-02  0.1103245E+00   0.8164608E+00 -0.4713846E+00 -0.3334490E+00
  0.6979292E-01 -0.1384638E+00  0.1103245E+00   0.8164608E+00 -0.4713846E+00 -0.3334490E+00
 -0.1523374E-01 -0.1875332E+00 -0.2849839E-01   0.8164608E+00 -0.4713846E+00 -0.3334490E+00
 -0.1525153E-01 -0.8936330E-01 -0.1673212E+00   0.8164608E+00 -0.4713846E+00 -0.3334490E+00
  0.6976521E-01  0.5788978E-01 -0.1673212E+00   0.8164608E+00 -0.4713846E+00 -0.3334490E+00
  0.1547919E+00  0.1069592E+00 -0.2849824E-01   0.8164608E+00 -0.4713846E+00 -0.3334490E+00
 BRILLOUIN-ZONE-CONVCELL_END
 ATOMS
   25    5.4423807650    3.2047195760    2.2667659380    0.0003359800   -0.0001939800   -0.0001423100
   25    9.0524566320    3.2360677290    2.2894000980    0.0003354200   -0.0001936600   -0.0001420800
   16    3.6785026300    4.2230950710    2.9862756070   -0.0003359000    0.0001939300    0.0001422900
   16    7.2885781460    4.2544435450    3.0089099310   -0.0003355000    0.0001937000    0.0001421000
 FRAMES
1      0.0000000000    0.0000000000    0.0000000000      7.2201553060    0.0626916270    0.0452659840
1      0.0000000000    0.0000000000    0.0000000000      1.8321886360    3.1734389180    0.0000000000
1      0.0000000000    0.0000000000    0.0000000000      1.8325720470    1.0575886640    2.9920385180
1      1.8325720470    1.0575886640    2.9920385180      9.0527273530    1.1202802910    3.0373045020
1      1.8325720470    1.0575886640    2.9920385180      3.6647606830    4.2310275820    2.9920385180
1      1.8321886360    3.1734389180    0.0000000000      9.0523439420    3.2361305450    0.0452659840