
     Program PWSCF v.7.3.1 starts on 19Jan2025 at 10:22: 2 

     This program is part of the open-source Quantum ESPRESSO suite
     for quantum simulation of materials; please cite
         "P. Giannozzi et al., J. Phys.:Condens. Matter 21 395502 (2009);
         "P. Giannozzi et al., J. Phys.:Condens. Matter 29 465901 (2017);
         "P. Giannozzi et al., J. Chem. Phys. 152 154105 (2020);
          URL http://www.quantum-espresso.org", 
     in publications or presentations arising from this work. More details at
     http://www.quantum-espresso.org/quote

     Parallel version (MPI), running on     6 processors

     MPI processes distributed on     1 nodes
     1849 MiB available memory on the printing compute node when the environment starts

     Reading input from vc_relax.in

     Current dimensions of program PWSCF are:
     Max number of different atomic species (ntypx) = 10
     Max number of k-points (npk) =  40000
     Max angular momentum in pseudopotentials (lmaxx) =  4
     file Mn.pbe-spn-kjpaw_psl.0.3.1.UPF: wavefunction(s)  3P 3D renormalized
     file Mn.pbe-spn-kjpaw_psl.0.3.1.UPF: wavefunction(s)  3P 3D renormalized
     file S.pbe-n-kjpaw_psl.1.0.0.UPF: wavefunction(s)  3S 3P renormalized
     Message from routine setup:
     using ibrav=0 with symmetry is DISCOURAGED, use correct ibrav instead

     R & G space division:  proc/nbgrp/npool/nimage =       6
     Subspace diagonalization in iterative solution of the eigenvalue problem:
     a serial algorithm will be used


     Parallelization info
     --------------------
     sticks:   dense  smooth     PW     G-vecs:    dense   smooth      PW
     Min         185     150     48                 2941     2116     382
     Max         188     151     50                 2942     2117     383
     Sum        1121     901    295                17651    12697    2297

     Using Slab Decomposition



     bravais-lattice index     =            0
     lattice parameter (alat)  =      14.7866  a.u.
     unit-cell volume          =     571.5148 (a.u.)^3
     number of atoms/cell      =            4
     number of atomic types    =            3
     number of electrons       =        42.00
     number of Kohn-Sham states=           25
     kinetic-energy cutoff     =      30.0000  Ry
     charge density cutoff     =     150.0000  Ry
     scf convergence threshold =      1.0E-10
     mixing beta               =       0.7000
     number of iterations used =            8  plain     mixing
     energy convergence thresh.=      1.0E-05
     force convergence thresh. =      1.0E-04
     press convergence thresh. =      5.0E-01
     Exchange-correlation= SLA  PW   PBX  PBC
                           (   1   4   3   4   0   0   0)
     nstep                     =           50


     celldm(1)=  14.786571  celldm(2)=   0.000000  celldm(3)=   0.000000
     celldm(4)=   0.000000  celldm(5)=   0.000000  celldm(6)=   0.000000

     crystal axes: (cart. coord. in units of alat)
               a(1) = (   1.000000   0.000000   0.000000 )  
               a(2) = (   0.250000   0.433013   0.000000 )  
               a(3) = (   0.250000   0.144338   0.408248 )  

     reciprocal axes: (cart. coord. in units 2 pi/alat)
               b(1) = (  1.000000 -0.577350 -0.408248 )  
               b(2) = (  0.000000  2.309401 -0.816496 )  
               b(3) = (  0.000000  0.000000  2.449490 )  


     PseudoPot. # 1 for Mn read from file:
     ./../../../pseudos/Mn.pbe-spn-kjpaw_psl.0.3.1.UPF
     MD5 check sum: ba19e6d7ccbc12830efad05ba8577d9c
     Pseudo is Projector augmented-wave + core cor, Zval = 15.0
     Generated using &quot;atomic&quot; code by A. Dal Corso  v.6.2.2
     Shape of augmentation charge: PSQ
     Using radial grid of 1187 points,  6 beta functions with: 
                l(1) =   0
                l(2) =   0
                l(3) =   1
                l(4) =   1
                l(5) =   2
                l(6) =   2
     Q(r) pseudized with 0 coefficients 


     PseudoPot. # 2 for Mn read from file:
     ./../../../pseudos/Mn.pbe-spn-kjpaw_psl.0.3.1.UPF
     MD5 check sum: ba19e6d7ccbc12830efad05ba8577d9c
     Pseudo is Projector augmented-wave + core cor, Zval = 15.0
     Generated using &quot;atomic&quot; code by A. Dal Corso  v.6.2.2
     Shape of augmentation charge: PSQ
     Using radial grid of 1187 points,  6 beta functions with: 
                l(1) =   0
                l(2) =   0
                l(3) =   1
                l(4) =   1
                l(5) =   2
                l(6) =   2
     Q(r) pseudized with 0 coefficients 


     PseudoPot. # 3 for S  read from file:
     ./../../../pseudos/S.pbe-n-kjpaw_psl.1.0.0.UPF
     MD5 check sum: fb45dfebcf3e72a4e1bd4a866ec2e262
     Pseudo is Projector augmented-wave + core cor, Zval =  6.0
     Generated using &quot;atomic&quot; code by A. Dal Corso  v.6.3
     Shape of augmentation charge: PSQ
     Using radial grid of 1151 points,  6 beta functions with: 
                l(1) =   0
                l(2) =   0
                l(3) =   1
                l(4) =   1
                l(5) =   2
                l(6) =   2
     Q(r) pseudized with 0 coefficients 


     atomic species   valence    mass     pseudopotential
     Mn1              15.00    54.93800     Mn( 1.00)
     Mn2              15.00    54.93800     Mn( 1.00)
     S                 6.00    32.06500     S ( 1.00)

     Starting magnetic structure 
     atomic species   magnetization
     Mn1             0.200
     Mn2            -0.200
     S               0.000

      2 Sym. Ops. (no inversion) found


                                    s                        frac. trans.

      isym =  1     identity                                     

 cryst.   s( 1) = (     1          0          0      )
                  (     0          1          0      )
                  (     0          0          1      )

 cart.    s( 1) = (  1.0000000  0.0000000  0.0000000 )
                  (  0.0000000  1.0000000  0.0000000 )
                  (  0.0000000  0.0000000  1.0000000 )


      isym =  2     inv. 180 deg rotation - cryst. axis [1,1,0]  

 cryst.   s( 2) = (     1         -2          0      )
                  (     0         -1          0      )
                  (     0         -1          1      )

 cart.    s( 2) = (  0.5000001 -0.8660253 -0.0000000 )
                  ( -0.8660254 -0.5000001 -0.0000001 )
                  (  0.0000000  0.0000000  1.0000000 )


   Cartesian axes

     site n.     atom                  positions (alat units)
         1        Mn1    tau(   1) = (   0.7465133   0.4350257   0.3076151  )
         2        Mn2    tau(   2) = (   1.2465120   0.4350265   0.3076157  )
         3        S      tau(   3) = (   0.5034875   0.5753367   0.4068191  )
         4        S      tau(   4) = (   1.0034870   0.5753370   0.4068193  )

   Crystallographic axes

     site n.     atom                  positions (cryst. coord.)
         1        Mn1    tau(   1) = (  0.3697678  0.7534822  0.7535000  )
         2        Mn2    tau(   2) = (  0.8697658  0.7534835  0.7535014  )
         3        S      tau(   3) = (  0.0052336  0.9965169  0.9964991  )
         4        S      tau(   4) = (  0.5052328  0.9965174  0.9964995  )

     number of k points=    38  Gaussian smearing, width (Ry)=  0.0100
                       cart. coord. in units 2pi/alat
        k(    1) = (   0.0000000   0.0000000   0.0000000), wk =   0.0133333
        k(    2) = (   0.0000000   0.0000000   0.4898979), wk =   0.0266667
        k(    3) = (   0.0000000   0.0000000   0.9797958), wk =   0.0266667
        k(    4) = (   0.0000000   0.4618802  -0.1632993), wk =   0.0266667
        k(    5) = (   0.0000000   0.4618802   0.3265986), wk =   0.0266667
        k(    6) = (   0.0000000   0.4618802   0.8164966), wk =   0.0266667
        k(    7) = (   0.0000000   0.4618802  -1.1430951), wk =   0.0266667
        k(    8) = (   0.0000000   0.4618802  -0.6531972), wk =   0.0266667
        k(    9) = (   0.0000000   0.9237604  -0.3265986), wk =   0.0266667
        k(   10) = (   0.0000000   0.9237604   0.1632993), wk =   0.0266667
        k(   11) = (   0.0000000   0.9237604   0.6531973), wk =   0.0266667
        k(   12) = (   0.0000000   0.9237604  -1.3063944), wk =   0.0266667
        k(   13) = (   0.0000000   0.9237604  -0.8164965), wk =   0.0266667
        k(   14) = (   0.3333333  -0.1924501  -0.1360827), wk =   0.0266667
        k(   15) = (   0.3333333  -0.1924501   0.3538152), wk =   0.0266667
        k(   16) = (   0.3333333  -0.1924501   0.8437131), wk =   0.0266667
        k(   17) = (   0.3333333  -0.1924501  -1.1158786), wk =   0.0266667
        k(   18) = (   0.3333333  -0.1924501  -0.6259807), wk =   0.0266667
        k(   19) = (   0.3333333   0.2694301  -0.2993820), wk =   0.0266667
        k(   20) = (   0.3333333   0.2694301   0.1905159), wk =   0.0266667
        k(   21) = (   0.3333333   0.2694301   0.6804138), wk =   0.0266667
        k(   22) = (   0.3333333   0.2694301  -1.2791779), wk =   0.0266667
        k(   23) = (   0.3333333   0.2694301  -0.7892800), wk =   0.0266667
        k(   24) = (   0.3333333   0.7313103  -0.4626813), wk =   0.0266667
        k(   25) = (   0.3333333   0.7313103   0.0272166), wk =   0.0266667
        k(   26) = (   0.3333333   0.7313103   0.5171145), wk =   0.0266667
        k(   27) = (   0.3333333   0.7313103  -1.4424772), wk =   0.0266667
        k(   28) = (   0.3333333   0.7313103  -0.9525793), wk =   0.0266667
        k(   29) = (   0.3333333  -1.1162105   0.1905158), wk =   0.0266667
        k(   30) = (   0.3333333  -1.1162105   0.6804138), wk =   0.0266667
        k(   31) = (   0.3333333  -1.1162105   1.1703117), wk =   0.0266667
        k(   32) = (   0.3333333  -1.1162105  -0.7892800), wk =   0.0266667
        k(   33) = (   0.3333333  -1.1162105  -0.2993821), wk =   0.0266667
        k(   34) = (   0.3333333  -0.6543303   0.0272165), wk =   0.0266667
        k(   35) = (   0.3333333  -0.6543303   0.5171145), wk =   0.0266667
        k(   36) = (   0.3333333  -0.6543303   1.0070124), wk =   0.0266667
        k(   37) = (   0.3333333  -0.6543303  -0.9525793), wk =   0.0266667
        k(   38) = (   0.3333333  -0.6543303  -0.4626814), wk =   0.0266667

                       cryst. coord.
        k(    1) = (   0.0000000   0.0000000   0.0000000), wk =   0.0133333
        k(    2) = (   0.0000000   0.0000000   0.2000000), wk =   0.0266667
        k(    3) = (   0.0000000   0.0000000   0.4000000), wk =   0.0266667
        k(    4) = (   0.0000000   0.2000000   0.0000000), wk =   0.0266667
        k(    5) = (   0.0000000   0.2000000   0.2000000), wk =   0.0266667
        k(    6) = (   0.0000000   0.2000000   0.4000000), wk =   0.0266667
        k(    7) = (   0.0000000   0.2000000  -0.4000000), wk =   0.0266667
        k(    8) = (   0.0000000   0.2000000  -0.2000000), wk =   0.0266667
        k(    9) = (   0.0000000   0.4000000   0.0000000), wk =   0.0266667
        k(   10) = (   0.0000000   0.4000000   0.2000000), wk =   0.0266667
        k(   11) = (   0.0000000   0.4000000   0.4000000), wk =   0.0266667
        k(   12) = (   0.0000000   0.4000000  -0.4000000), wk =   0.0266667
        k(   13) = (   0.0000000   0.4000000  -0.2000000), wk =   0.0266667
        k(   14) = (   0.3333333  -0.0000000  -0.0000000), wk =   0.0266667
        k(   15) = (   0.3333333  -0.0000000   0.2000000), wk =   0.0266667
        k(   16) = (   0.3333333  -0.0000000   0.4000000), wk =   0.0266667
        k(   17) = (   0.3333333  -0.0000000  -0.4000000), wk =   0.0266667
        k(   18) = (   0.3333333  -0.0000000  -0.2000000), wk =   0.0266667
        k(   19) = (   0.3333333   0.2000000  -0.0000000), wk =   0.0266667
        k(   20) = (   0.3333333   0.2000000   0.2000000), wk =   0.0266667
        k(   21) = (   0.3333333   0.2000000   0.4000000), wk =   0.0266667
        k(   22) = (   0.3333333   0.2000000  -0.4000000), wk =   0.0266667
        k(   23) = (   0.3333333   0.2000000  -0.2000000), wk =   0.0266667
        k(   24) = (   0.3333333   0.4000000   0.0000000), wk =   0.0266667
        k(   25) = (   0.3333333   0.4000000   0.2000000), wk =   0.0266667
        k(   26) = (   0.3333333   0.4000000   0.4000000), wk =   0.0266667
        k(   27) = (   0.3333333   0.4000000  -0.4000000), wk =   0.0266667
        k(   28) = (   0.3333333   0.4000000  -0.2000000), wk =   0.0266667
        k(   29) = (   0.3333333  -0.4000000   0.0000000), wk =   0.0266667
        k(   30) = (   0.3333333  -0.4000000   0.2000000), wk =   0.0266667
        k(   31) = (   0.3333333  -0.4000000   0.4000000), wk =   0.0266667
        k(   32) = (   0.3333333  -0.4000000  -0.4000000), wk =   0.0266667
        k(   33) = (   0.3333333  -0.4000000  -0.2000000), wk =   0.0266667
        k(   34) = (   0.3333333  -0.2000000  -0.0000000), wk =   0.0266667
        k(   35) = (   0.3333333  -0.2000000   0.2000000), wk =   0.0266667
        k(   36) = (   0.3333333  -0.2000000   0.4000000), wk =   0.0266667
        k(   37) = (   0.3333333  -0.2000000  -0.4000000), wk =   0.0266667
        k(   38) = (   0.3333333  -0.2000000  -0.2000000), wk =   0.0266667

     Dense  grid:    17651 G-vectors     FFT dimensions: (  60,  30,  30)

     Smooth grid:    12697 G-vectors     FFT dimensions: (  54,  25,  25)

     Dynamical RAM for                 wfc:       0.10 MB

     Dynamical RAM for     wfc (w. buffer):       7.75 MB

     Dynamical RAM for           str. fact:       0.13 MB

     Dynamical RAM for           local pot:       0.00 MB

     Dynamical RAM for          nlocal pot:       0.29 MB

     Dynamical RAM for                qrad:       5.90 MB

     Dynamical RAM for          rho,v,vnew:       0.68 MB

     Dynamical RAM for               rhoin:       0.23 MB

     Dynamical RAM for            rho*nmix:       1.44 MB

     Dynamical RAM for           G-vectors:       0.18 MB

     Dynamical RAM for          h,s,v(r/c):       0.11 MB

     Dynamical RAM for          <psi|beta>:       0.03 MB

     Dynamical RAM for                 psi:       0.20 MB

     Dynamical RAM for                hpsi:       0.20 MB

     Dynamical RAM for                spsi:       0.20 MB

     Dynamical RAM for      wfcinit/wfcrot:       0.24 MB

     Dynamical RAM for           addusdens:       8.48 MB

     Dynamical RAM for          addusforce:       8.59 MB

     Dynamical RAM for         addusstress:       9.09 MB

     Estimated static dynamical RAM per process >      15.77 MB

     Estimated max dynamical RAM per process >      26.30 MB

     Estimated total dynamical RAM >     157.77 MB

     Check: negative core charge=   -0.000238
     Generating pointlists ...
     new r_m :   0.1228 (alat units)  1.8154 (a.u.) for type    1
     new r_m :   0.1228 (alat units)  1.8154 (a.u.) for type    2
     new r_m :   0.1228 (alat units)  1.8154 (a.u.) for type    3

     Initial potential from superposition of free atoms

     starting charge      41.9989, renormalised to      42.0000
     Starting wfcs are   28 randomized atomic wfcs
     Checking if some PAW data can be deallocated... 
       PAW data deallocated on    4 nodes for type:  1
       PAW data deallocated on    4 nodes for type:  2
       PAW data deallocated on    4 nodes for type:  3

     total cpu time spent up to now is        1.6 secs

     Self-consistent Calculation

     iteration #  1     ecut=    30.00 Ry     beta= 0.70
     Davidson diagonalization with overlap

---- Real-time Memory Report at c_bands before calling an iterative solver
            60 MiB given to the printing process from OS
             0 MiB allocation reported by mallinfo(arena+hblkhd)
          1666 MiB available memory on the node where the printing process lives
------------------
     ethr =  1.00E-02,  avg # of iterations =  2.0

     Threshold (ethr) on eigenvalues was too large:
     Diagonalizing with lowered threshold

     Davidson diagonalization with overlap

---- Real-time Memory Report at c_bands before calling an iterative solver
            60 MiB given to the printing process from OS
             0 MiB allocation reported by mallinfo(arena+hblkhd)
          1639 MiB available memory on the node where the printing process lives
------------------
     ethr =  3.70E-04,  avg # of iterations =  3.9

     total cpu time spent up to now is        5.8 secs

     total energy              =    -705.51261222 Ry
     estimated scf accuracy    <       0.13579258 Ry

     total magnetization       =     0.00 Bohr mag/cell
     absolute magnetization    =     8.12 Bohr mag/cell

     iteration #  2     ecut=    30.00 Ry     beta= 0.70
     Davidson diagonalization with overlap

---- Real-time Memory Report at c_bands before calling an iterative solver
            69 MiB given to the printing process from OS
             0 MiB allocation reported by mallinfo(arena+hblkhd)
          1623 MiB available memory on the node where the printing process lives
------------------
     ethr =  3.23E-04,  avg # of iterations =  2.2

     total cpu time spent up to now is        7.8 secs

     total energy              =    -705.54867388 Ry
     estimated scf accuracy    <       0.01480318 Ry

     total magnetization       =    -0.00 Bohr mag/cell
     absolute magnetization    =     8.55 Bohr mag/cell

     iteration #  3     ecut=    30.00 Ry     beta= 0.70
     Davidson diagonalization with overlap

---- Real-time Memory Report at c_bands before calling an iterative solver
            70 MiB given to the printing process from OS
             0 MiB allocation reported by mallinfo(arena+hblkhd)
          1621 MiB available memory on the node where the printing process lives
------------------
     ethr =  3.52E-05,  avg # of iterations =  3.9

     total cpu time spent up to now is       10.1 secs

     total energy              =    -705.55281866 Ry
     estimated scf accuracy    <       0.00961873 Ry

     total magnetization       =     0.00 Bohr mag/cell
     absolute magnetization    =     8.78 Bohr mag/cell

     iteration #  4     ecut=    30.00 Ry     beta= 0.70
     Davidson diagonalization with overlap

---- Real-time Memory Report at c_bands before calling an iterative solver
            70 MiB given to the printing process from OS
             0 MiB allocation reported by mallinfo(arena+hblkhd)
          1619 MiB available memory on the node where the printing process lives
------------------
     ethr =  2.29E-05,  avg # of iterations =  5.6

     total cpu time spent up to now is       12.6 secs

     total energy              =    -705.55121562 Ry
     estimated scf accuracy    <       0.05653431 Ry

     total magnetization       =    -0.00 Bohr mag/cell
     absolute magnetization    =     8.83 Bohr mag/cell

     iteration #  5     ecut=    30.00 Ry     beta= 0.70
     Davidson diagonalization with overlap

---- Real-time Memory Report at c_bands before calling an iterative solver
            70 MiB given to the printing process from OS
             0 MiB allocation reported by mallinfo(arena+hblkhd)
          1618 MiB available memory on the node where the printing process lives
------------------
     ethr =  2.29E-05,  avg # of iterations =  4.4

     total cpu time spent up to now is       15.1 secs

     total energy              =    -705.55753637 Ry
     estimated scf accuracy    <       0.00185138 Ry

     total magnetization       =     0.00 Bohr mag/cell
     absolute magnetization    =     8.94 Bohr mag/cell

     iteration #  6     ecut=    30.00 Ry     beta= 0.70
     Davidson diagonalization with overlap

---- Real-time Memory Report at c_bands before calling an iterative solver
            70 MiB given to the printing process from OS
             0 MiB allocation reported by mallinfo(arena+hblkhd)
          1603 MiB available memory on the node where the printing process lives
------------------
     ethr =  4.41E-06,  avg # of iterations =  4.5

     total cpu time spent up to now is       17.6 secs

     total energy              =    -705.55808415 Ry
     estimated scf accuracy    <       0.00056668 Ry

     total magnetization       =     0.00 Bohr mag/cell
     absolute magnetization    =     8.94 Bohr mag/cell

     iteration #  7     ecut=    30.00 Ry     beta= 0.70
     Davidson diagonalization with overlap

---- Real-time Memory Report at c_bands before calling an iterative solver
            70 MiB given to the printing process from OS
             0 MiB allocation reported by mallinfo(arena+hblkhd)
          1603 MiB available memory on the node where the printing process lives
------------------
     ethr =  1.35E-06,  avg # of iterations =  2.6

     total cpu time spent up to now is       19.7 secs

     total energy              =    -705.55816596 Ry
     estimated scf accuracy    <       0.00005152 Ry

     total magnetization       =     0.00 Bohr mag/cell
     absolute magnetization    =     8.96 Bohr mag/cell

     iteration #  8     ecut=    30.00 Ry     beta= 0.70
     Davidson diagonalization with overlap

---- Real-time Memory Report at c_bands before calling an iterative solver
            70 MiB given to the printing process from OS
             0 MiB allocation reported by mallinfo(arena+hblkhd)
          1618 MiB available memory on the node where the printing process lives
------------------
     ethr =  1.23E-07,  avg # of iterations =  4.1

     total cpu time spent up to now is       22.0 secs

     total energy              =    -705.55817829 Ry
     estimated scf accuracy    <       0.00001153 Ry

     total magnetization       =     0.00 Bohr mag/cell
     absolute magnetization    =     8.97 Bohr mag/cell

     iteration #  9     ecut=    30.00 Ry     beta= 0.70
     Davidson diagonalization with overlap

---- Real-time Memory Report at c_bands before calling an iterative solver
            70 MiB given to the printing process from OS
             0 MiB allocation reported by mallinfo(arena+hblkhd)
          1613 MiB available memory on the node where the printing process lives
------------------
     ethr =  2.74E-08,  avg # of iterations =  3.0

     total cpu time spent up to now is       24.1 secs

     total energy              =    -705.55818022 Ry
     estimated scf accuracy    <       0.00000126 Ry

     total magnetization       =    -0.00 Bohr mag/cell
     absolute magnetization    =     8.97 Bohr mag/cell

     iteration # 10     ecut=    30.00 Ry     beta= 0.70
     Davidson diagonalization with overlap

---- Real-time Memory Report at c_bands before calling an iterative solver
            71 MiB given to the printing process from OS
             0 MiB allocation reported by mallinfo(arena+hblkhd)
          1609 MiB available memory on the node where the printing process lives
------------------
     ethr =  3.00E-09,  avg # of iterations =  4.5

     total cpu time spent up to now is       26.7 secs

     total energy              =    -705.55818066 Ry
     estimated scf accuracy    <       0.00000033 Ry

     total magnetization       =    -0.00 Bohr mag/cell
     absolute magnetization    =     8.97 Bohr mag/cell

     iteration # 11     ecut=    30.00 Ry     beta= 0.70
     Davidson diagonalization with overlap

---- Real-time Memory Report at c_bands before calling an iterative solver
            71 MiB given to the printing process from OS
             0 MiB allocation reported by mallinfo(arena+hblkhd)
          1613 MiB available memory on the node where the printing process lives
------------------
     ethr =  7.87E-10,  avg # of iterations =  2.6

     total cpu time spent up to now is       28.7 secs

     total energy              =    -705.55818070 Ry
     estimated scf accuracy    <       0.00000002 Ry

     total magnetization       =    -0.00 Bohr mag/cell
     absolute magnetization    =     8.97 Bohr mag/cell

     iteration # 12     ecut=    30.00 Ry     beta= 0.70
     Davidson diagonalization with overlap

---- Real-time Memory Report at c_bands before calling an iterative solver
            71 MiB given to the printing process from OS
             0 MiB allocation reported by mallinfo(arena+hblkhd)
          1615 MiB available memory on the node where the printing process lives
------------------
     ethr =  5.59E-11,  avg # of iterations =  4.4

     total cpu time spent up to now is       32.6 secs

     total energy              =    -705.55818071 Ry
     estimated scf accuracy    <          1.1E-09 Ry

     total magnetization       =     0.00 Bohr mag/cell
     absolute magnetization    =     8.97 Bohr mag/cell

     iteration # 13     ecut=    30.00 Ry     beta= 0.70
     Davidson diagonalization with overlap

---- Real-time Memory Report at c_bands before calling an iterative solver
            71 MiB given to the printing process from OS
             0 MiB allocation reported by mallinfo(arena+hblkhd)
          1615 MiB available memory on the node where the printing process lives
------------------
     ethr =  2.60E-12,  avg # of iterations =  4.3

     total cpu time spent up to now is       35.0 secs

     total energy              =    -705.55818071 Ry
     estimated scf accuracy    <          4.3E-10 Ry

     total magnetization       =     0.00 Bohr mag/cell
     absolute magnetization    =     8.97 Bohr mag/cell

     iteration # 14     ecut=    30.00 Ry     beta= 0.70
     Davidson diagonalization with overlap

---- Real-time Memory Report at c_bands before calling an iterative solver
            71 MiB given to the printing process from OS
             0 MiB allocation reported by mallinfo(arena+hblkhd)
          1642 MiB available memory on the node where the printing process lives
------------------
     ethr =  1.03E-12,  avg # of iterations =  2.1

     Magnetic moment per site  (integrated on atomic sphere of radius R)
     atom   1 (R=0.123)  charge= 12.7879  magn=  3.8611
     atom   2 (R=0.123)  charge= 12.7879  magn= -3.8611
     atom   3 (R=0.123)  charge=  3.9416  magn= -0.0527
     atom   4 (R=0.123)  charge=  3.9416  magn=  0.0527

     total cpu time spent up to now is       36.9 secs

     End of self-consistent calculation

 ------ SPIN UP ------------


          k = 0.0000 0.0000 0.0000 (  1617 PWs)   bands (ev):

   -74.4032 -70.0031 -43.1483 -43.1483 -43.0825 -38.8073 -38.7798 -38.7798
    -6.1270  -5.4056   2.1901   3.1498   3.1499   3.3109   4.1582   4.1583
     5.1689   5.1690   6.4751   7.3636   7.3637   8.7835   8.7836   9.3940
    10.2447

     occupation numbers 
     1.0000   1.0000   1.0000   1.0000   1.0000   1.0000   1.0000   1.0000
     1.0000   1.0000   1.0000   1.0000   1.0000   1.0000   1.0000   1.0000
     1.0000   1.0000   1.0000   1.0000   1.0000   0.0000   0.0000   0.0000
     0.0000

          k = 0.0000 0.0000 0.4899 (  1600 PWs)   bands (ev):

   -74.4030 -70.0030 -43.1491 -43.1484 -43.0821 -38.8070 -38.7811 -38.7800
    -5.9071  -5.3376   2.4236   2.8788   3.2519   3.3596   3.7843   4.1625
     5.0299   5.1518   6.1396   6.6782   7.0448   8.6318   8.7640   9.4584
    10.0280

     occupation numbers 
     1.0000   1.0000   1.0000   1.0000   1.0000   1.0000   1.0000   1.0000
     1.0000   1.0000   1.0000   1.0000   1.0000   1.0000   1.0000   1.0000
     1.0000   1.0000   1.0000   1.0000   1.0000   0.0000   0.0000   0.0000
     0.0000

          k = 0.0000 0.0000 0.9798 (  1578 PWs)   bands (ev):

   -74.4028 -70.0027 -43.1502 -43.1486 -43.0820 -38.8067 -38.7829 -38.7804
    -5.5146  -5.2120   2.1460   2.4698   3.3950   3.4771   3.8540   4.2183
     5.0009   5.1376   5.5977   6.2045   6.5943   8.3873   8.9154   8.9690
     9.4108

     occupation numbers 
     1.0000   1.0000   1.0000   1.0000   1.0000   1.0000   1.0000   1.0000
     1.0000   1.0000   1.0000   1.0000   1.0000   1.0000   1.0000   1.0000
     1.0000   1.0000   1.0000   1.0000   1.0000   0.0000   0.0000   0.0000
     0.0000

          k = 0.0000 0.4619-0.1633 (  1600 PWs)   bands (ev):

   -74.4030 -70.0030 -43.1491 -43.1484 -43.0821 -38.8070 -38.7810 -38.7800
    -5.9071  -5.3376   2.4237   2.8787   3.2520   3.3596   3.7843   4.1626
     5.0299   5.1519   6.1396   6.6782   7.0447   8.6317   8.7640   9.4584
    10.0279

     occupation numbers 
     1.0000   1.0000   1.0000   1.0000   1.0000   1.0000   1.0000   1.0000
     1.0000   1.0000   1.0000   1.0000   1.0000   1.0000   1.0000   1.0000
     1.0000   1.0000   1.0000   1.0000   1.0000   0.0000   0.0000   0.0000
     0.0000

          k = 0.0000 0.4619 0.3266 (  1598 PWs)   bands (ev):

   -74.4030 -70.0029 -43.1490 -43.1484 -43.0822 -38.8070 -38.7809 -38.7800
    -5.8362  -5.4218   2.5581   2.7746   3.2555   3.3476   3.7938   4.1774
     5.0191   5.1074   6.2177   6.6896   7.0353   8.5485   8.8781   9.4998
     9.9039

     occupation numbers 
     1.0000   1.0000   1.0000   1.0000   1.0000   1.0000   1.0000   1.0000
     1.0000   1.0000   1.0000   1.0000   1.0000   1.0000   1.0000   1.0000
     1.0000   1.0000   1.0000   1.0000   1.0000   0.0000   0.0000   0.0000
     0.0000

          k = 0.0000 0.4619 0.8165 (  1588 PWs)   bands (ev):

   -74.4029 -70.0028 -43.1498 -43.1488 -43.0821 -38.8068 -38.7823 -38.7807
    -5.5070  -5.3350   2.3787   2.6211   3.2659   3.4706   3.7799   4.0440
     4.9008   5.1846   5.8123   6.2750   6.5398   8.3762   8.7582   9.0889
     9.4411

     occupation numbers 
     1.0000   1.0000   1.0000   1.0000   1.0000   1.0000   1.0000   1.0000
     1.0000   1.0000   1.0000   1.0000   1.0000   1.0000   1.0000   1.0000
     1.0000   1.0000   1.0000   1.0000   1.0000   0.0000   0.0000   0.0000
     0.0000

          k = 0.0000 0.4619-1.1431 (  1573 PWs)   bands (ev):

   -74.4027 -70.0027 -43.1503 -43.1491 -43.0819 -38.8066 -38.7830 -38.7812
    -5.3615  -5.2015   2.3762   2.6480   3.1500   3.4952   3.6582   3.9826
     4.8477   5.2331   5.6183   5.8496   6.2536   8.3397   8.6895   9.0925
     9.2244

     occupation numbers 
     1.0000   1.0000   1.0000   1.0000   1.0000   1.0000   1.0000   1.0000
     1.0000   1.0000   1.0000   1.0000   1.0000   1.0000   1.0000   1.0000
     1.0000   1.0000   1.0000   1.0000   1.0000   0.0000   0.0000   0.0000
     0.0000

          k = 0.0000 0.4619-0.6532 (  1585 PWs)   bands (ev):

   -74.4028 -70.0028 -43.1499 -43.1488 -43.0821 -38.8068 -38.7823 -38.7807
    -5.6251  -5.2084   2.6070   2.8082   3.1639   3.3438   3.5077   4.0988
     4.9986   5.1507   5.5668   6.0842   6.5929   8.5178   8.8809   9.1124
     9.2856

     occupation numbers 
     1.0000   1.0000   1.0000   1.0000   1.0000   1.0000   1.0000   1.0000
     1.0000   1.0000   1.0000   1.0000   1.0000   1.0000   1.0000   1.0000
     1.0000   1.0000   1.0000   1.0000   1.0000   0.0000   0.0000   0.0000
     0.0000

          k = 0.0000 0.9238-0.3266 (  1578 PWs)   bands (ev):

   -74.4028 -70.0027 -43.1502 -43.1487 -43.0820 -38.8067 -38.7829 -38.7805
    -5.5146  -5.2120   2.1460   2.4697   3.3952   3.4772   3.8539   4.2185
     5.0010   5.1376   5.5977   6.2045   6.5941   8.3872   8.9155   8.9689
     9.4107

     occupation numbers 
     1.0000   1.0000   1.0000   1.0000   1.0000   1.0000   1.0000   1.0000
     1.0000   1.0000   1.0000   1.0000   1.0000   1.0000   1.0000   1.0000
     1.0000   1.0000   1.0000   1.0000   1.0000   0.0000   0.0000   0.0000
     0.0000

          k = 0.0000 0.9238 0.1633 (  1588 PWs)   bands (ev):

   -74.4029 -70.0028 -43.1498 -43.1489 -43.0821 -38.8068 -38.7822 -38.7807
    -5.5070  -5.3350   2.3787   2.6210   3.2660   3.4706   3.7799   4.0440
     4.9008   5.1846   5.8123   6.2750   6.5397   8.3761   8.7581   9.0889
     9.4410

     occupation numbers 
     1.0000   1.0000   1.0000   1.0000   1.0000   1.0000   1.0000   1.0000
     1.0000   1.0000   1.0000   1.0000   1.0000   1.0000   1.0000   1.0000
     1.0000   1.0000   1.0000   1.0000   1.0000   0.0000   0.0000   0.0000
     0.0000

          k = 0.0000 0.9238 0.6532 (  1582 PWs)   bands (ev):

   -74.4028 -70.0028 -43.1502 -43.1487 -43.0820 -38.8068 -38.7829 -38.7805
    -5.4545  -5.2770   2.1497   2.4643   3.4009   3.4385   3.8672   4.2171
     5.0322   5.1121   5.6328   6.2175   6.6012   8.4414   8.8763   8.8936
     9.3293

     occupation numbers 
     1.0000   1.0000   1.0000   1.0000   1.0000   1.0000   1.0000   1.0000
     1.0000   1.0000   1.0000   1.0000   1.0000   1.0000   1.0000   1.0000
     1.0000   1.0000   1.0000   1.0000   1.0000   0.0000   0.0000   0.0000
     0.0000

          k = 0.0000 0.9238-1.3064 (  1588 PWs)   bands (ev):

   -74.4028 -70.0028 -43.1503 -43.1493 -43.0820 -38.8067 -38.7830 -38.7813
    -5.3713  -5.1900   2.3055   2.5557   3.2102   3.5679   3.7289   3.9084
     4.8255   5.2029   5.6423   5.8817   6.2909   8.3042   8.6018   9.0881
     9.2954

     occupation numbers 
     1.0000   1.0000   1.0000   1.0000   1.0000   1.0000   1.0000   1.0000
     1.0000   1.0000   1.0000   1.0000   1.0000   1.0000   1.0000   1.0000
     1.0000   1.0000   1.0000   1.0000   1.0000   0.0000   0.0000   0.0000
     0.0000

          k = 0.0000 0.9238-0.8165 (  1573 PWs)   bands (ev):

   -74.4027 -70.0027 -43.1502 -43.1492 -43.0819 -38.8066 -38.7829 -38.7812
    -5.3615  -5.2015   2.3761   2.6479   3.1501   3.4953   3.6582   3.9827
     4.8476   5.2332   5.6183   5.8496   6.2535   8.3396   8.6896   9.0925
     9.2244

     occupation numbers 
     1.0000   1.0000   1.0000   1.0000   1.0000   1.0000   1.0000   1.0000
     1.0000   1.0000   1.0000   1.0000   1.0000   1.0000   1.0000   1.0000
     1.0000   1.0000   1.0000   1.0000   1.0000   0.0000   0.0000   0.0000
     0.0000

          k = 0.3333-0.1925-0.1361 (  1605 PWs)   bands (ev):

   -74.4031 -70.0030 -43.1482 -43.1481 -43.0823 -38.8072 -38.7797 -38.7797
    -5.9723  -5.5930   2.4341   3.1030   3.1642   3.1643   4.2009   4.2010
     5.0975   5.0977   6.4977   7.3407   7.3408   8.8910   8.8911   9.4153
    10.3007

     occupation numbers 
     1.0000   1.0000   1.0000   1.0000   1.0000   1.0000   1.0000   1.0000
     1.0000   1.0000   1.0000   1.0000   1.0000   1.0000   1.0000   1.0000
     1.0000   1.0000   1.0000   1.0000   1.0000   0.0000   0.0000   0.0000
     0.0000

          k = 0.3333-0.1925 0.3538 (  1594 PWs)   bands (ev):

   -74.4030 -70.0029 -43.1490 -43.1484 -43.0822 -38.8070 -38.7810 -38.7800
    -5.8743  -5.3774   2.5388   2.8106   3.2571   3.3591   3.7391   4.1728
     5.0458   5.1323   6.1584   6.7078   7.0383   8.5639   8.8824   9.5495
     9.9268

     occupation numbers 
     1.0000   1.0000   1.0000   1.0000   1.0000   1.0000   1.0000   1.0000
     1.0000   1.0000   1.0000   1.0000   1.0000   1.0000   1.0000   1.0000
     1.0000   1.0000   1.0000   1.0000   1.0000   0.0000   0.0000   0.0000
     0.0000

          k = 0.3333-0.1925 0.8437 (  1583 PWs)   bands (ev):

   -74.4028 -70.0028 -43.1503 -43.1487 -43.0820 -38.8068 -38.7830 -38.7805
    -5.5149  -5.2178   2.3717   2.7983   3.2241   3.3792   3.4760   4.2149
     5.0507   5.1465   5.4668   6.0153   6.5605   8.5189   8.9882   9.0347
     9.3042

     occupation numbers 
     1.0000   1.0000   1.0000   1.0000   1.0000   1.0000   1.0000   1.0000
     1.0000   1.0000   1.0000   1.0000   1.0000   1.0000   1.0000   1.0000
     1.0000   1.0000   1.0000   1.0000   1.0000   0.0000   0.0000   0.0000
     0.0000

          k = 0.3333-0.1925-1.1159 (  1581 PWs)   bands (ev):

   -74.4028 -70.0027 -43.1502 -43.1486 -43.0820 -38.8068 -38.7829 -38.7805
    -5.4255  -5.3100   2.2370   2.5714   3.3284   3.3956   3.7493   4.2176
     5.0754   5.1344   5.6034   6.0878   6.5903   8.5458   8.9105   8.9377
     9.2312

     occupation numbers 
     1.0000   1.0000   1.0000   1.0000   1.0000   1.0000   1.0000   1.0000
     1.0000   1.0000   1.0000   1.0000   1.0000   1.0000   1.0000   1.0000
     1.0000   1.0000   1.0000   1.0000   1.0000   0.0000   0.0000   0.0000
     0.0000

          k = 0.3333-0.1925-0.6260 (  1602 PWs)   bands (ev):

   -74.4030 -70.0030 -43.1491 -43.1483 -43.0822 -38.8070 -38.7811 -38.7800
    -5.7117  -5.5579   2.5230   2.7162   3.2570   3.3518   3.9619   4.1920
     4.9410   5.0862   6.4699   6.5550   7.0589   8.5523   8.7917   9.2415
     9.8165

     occupation numbers 
     1.0000   1.0000   1.0000   1.0000   1.0000   1.0000   1.0000   1.0000
     1.0000   1.0000   1.0000   1.0000   1.0000   1.0000   1.0000   1.0000
     1.0000   1.0000   1.0000   1.0000   1.0000   0.0000   0.0000   0.0000
     0.0000

          k = 0.3333 0.2694-0.2994 (  1594 PWs)   bands (ev):

   -74.4030 -70.0029 -43.1490 -43.1484 -43.0822 -38.8070 -38.7809 -38.7800
    -5.8743  -5.3774   2.5388   2.8106   3.2572   3.3591   3.7390   4.1729
     5.0458   5.1324   6.1583   6.7079   7.0382   8.5638   8.8824   9.5496
     9.9269

     occupation numbers 
     1.0000   1.0000   1.0000   1.0000   1.0000   1.0000   1.0000   1.0000
     1.0000   1.0000   1.0000   1.0000   1.0000   1.0000   1.0000   1.0000
     1.0000   1.0000   1.0000   1.0000   1.0000   0.0000   0.0000   0.0000
     0.0000

          k = 0.3333 0.2694 0.1905 (  1598 PWs)   bands (ev):

   -74.4030 -70.0029 -43.1490 -43.1483 -43.0822 -38.8070 -38.7810 -38.7800
    -5.9235  -5.3179   2.4385   2.8900   3.2558   3.3629   3.7318   4.1627
     5.0464   5.1655   6.0918   6.6925   7.0510   8.6194   8.7939   9.4801
    10.0856

     occupation numbers 
     1.0000   1.0000   1.0000   1.0000   1.0000   1.0000   1.0000   1.0000
     1.0000   1.0000   1.0000   1.0000   1.0000   1.0000   1.0000   1.0000
     1.0000   1.0000   1.0000   1.0000   1.0000   0.0000   0.0000   0.0000
     0.0000

          k = 0.3333 0.2694 0.6804 (  1583 PWs)   bands (ev):

   -74.4028 -70.0028 -43.1498 -43.1488 -43.0820 -38.8068 -38.7823 -38.7807
    -5.6214  -5.2126   2.5908   2.8010   3.1659   3.3659   3.5126   4.0989
     4.9957   5.1502   5.5837   6.0961   6.5970   8.5107   8.8693   9.1211
     9.3004

     occupation numbers 
     1.0000   1.0000   1.0000   1.0000   1.0000   1.0000   1.0000   1.0000
     1.0000   1.0000   1.0000   1.0000   1.0000   1.0000   1.0000   1.0000
     1.0000   1.0000   1.0000   1.0000   1.0000   0.0000   0.0000   0.0000
     0.0000

          k = 0.3333 0.2694-1.2792 (  1576 PWs)   bands (ev):

   -74.4027 -70.0027 -43.1503 -43.1492 -43.0819 -38.8066 -38.7830 -38.7812
    -5.3669  -5.1952   2.3398   2.5986   3.1848   3.5416   3.6847   3.9505
     4.8398   5.2243   5.6347   5.8759   6.2754   8.3334   8.6414   9.1075
     9.2478

     occupation numbers 
     1.0000   1.0000   1.0000   1.0000   1.0000   1.0000   1.0000   1.0000
     1.0000   1.0000   1.0000   1.0000   1.0000   1.0000   1.0000   1.0000
     1.0000   1.0000   1.0000   1.0000   1.0000   0.0000   0.0000   0.0000
     0.0000

          k = 0.3333 0.2694-0.7893 (  1589 PWs)   bands (ev):

   -74.4029 -70.0028 -43.1498 -43.1488 -43.0821 -38.8068 -38.7823 -38.7807
    -5.5368  -5.3039   2.4081   2.6493   3.2466   3.4690   3.7137   4.0667
     4.9164   5.1760   5.7678   6.2279   6.5618   8.3864   8.7789   9.1071
     9.4273

     occupation numbers 
     1.0000   1.0000   1.0000   1.0000   1.0000   1.0000   1.0000   1.0000
     1.0000   1.0000   1.0000   1.0000   1.0000   1.0000   1.0000   1.0000
     1.0000   1.0000   1.0000   1.0000   1.0000   0.0000   0.0000   0.0000
     0.0000

          k = 0.3333 0.7313-0.4627 (  1583 PWs)   bands (ev):

   -74.4028 -70.0028 -43.1502 -43.1487 -43.0820 -38.8068 -38.7829 -38.7805
    -5.5149  -5.2178   2.3717   2.7983   3.2240   3.3793   3.4760   4.2150
     5.0507   5.1466   5.4667   6.0152   6.5603   8.5187   8.9882   9.0347
     9.3042

     occupation numbers 
     1.0000   1.0000   1.0000   1.0000   1.0000   1.0000   1.0000   1.0000
     1.0000   1.0000   1.0000   1.0000   1.0000   1.0000   1.0000   1.0000
     1.0000   1.0000   1.0000   1.0000   1.0000   0.0000   0.0000   0.0000
     0.0000

          k = 0.3333 0.7313 0.0272 (  1583 PWs)   bands (ev):

   -74.4028 -70.0028 -43.1498 -43.1488 -43.0820 -38.8068 -38.7822 -38.7807
    -5.6214  -5.2126   2.5908   2.8011   3.1659   3.3660   3.5126   4.0990
     4.9956   5.1503   5.5838   6.0960   6.5970   8.5106   8.8693   9.1210
     9.3003

     occupation numbers 
     1.0000   1.0000   1.0000   1.0000   1.0000   1.0000   1.0000   1.0000
     1.0000   1.0000   1.0000   1.0000   1.0000   1.0000   1.0000   1.0000
     1.0000   1.0000   1.0000   1.0000   1.0000   0.0000   0.0000   0.0000
     0.0000

          k = 0.3333 0.7313 0.5171 (  1587 PWs)   bands (ev):

   -74.4028 -70.0028 -43.1502 -43.1487 -43.0821 -38.8069 -38.7829 -38.7805
    -5.4764  -5.2599   2.3773   2.8306   3.1143   3.3827   3.5325   4.2147
     5.0777   5.1397   5.4857   5.9904   6.5668   8.5452   8.9807   9.0333
     9.2118

     occupation numbers 
     1.0000   1.0000   1.0000   1.0000   1.0000   1.0000   1.0000   1.0000
     1.0000   1.0000   1.0000   1.0000   1.0000   1.0000   1.0000   1.0000
     1.0000   1.0000   1.0000   1.0000   1.0000   0.0000   0.0000   0.0000
     0.0000

          k = 0.3333 0.7313-1.4425 (  1573 PWs)   bands (ev):

   -74.4027 -70.0027 -43.1502 -43.1491 -43.0820 -38.8067 -38.7829 -38.7812
    -5.3483  -5.2174   2.4756   2.7877   3.0590   3.3364   3.6204   4.0363
     4.8558   5.2447   5.5570   5.8119   6.2186   8.3159   8.8025   9.0353
     9.1761

     occupation numbers 
     1.0000   1.0000   1.0000   1.0000   1.0000   1.0000   1.0000   1.0000
     1.0000   1.0000   1.0000   1.0000   1.0000   1.0000   1.0000   1.0000
     1.0000   1.0000   1.0000   1.0000   1.0000   0.0000   0.0000   0.0000
     0.0000

          k = 0.3333 0.7313-0.9526 (  1579 PWs)   bands (ev):

   -74.4028 -70.0027 -43.1503 -43.1492 -43.0820 -38.8067 -38.7829 -38.7813
    -5.3387  -5.2286   2.5538   2.9173   2.9978   3.1793   3.6023   4.0578
     4.8483   5.2456   5.5033   5.8059   6.1947   8.2867   8.8347   9.0372
     9.1380

     occupation numbers 
     1.0000   1.0000   1.0000   1.0000   1.0000   1.0000   1.0000   1.0000
     1.0000   1.0000   1.0000   1.0000   1.0000   1.0000   1.0000   1.0000
     1.0000   1.0000   1.0000   1.0000   1.0000   0.0000   0.0000   0.0000
     0.0000

          k = 0.3333-1.1162 0.1905 (  1581 PWs)   bands (ev):

   -74.4028 -70.0027 -43.1502 -43.1487 -43.0820 -38.8068 -38.7829 -38.7805
    -5.4255  -5.3099   2.2370   2.5713   3.3285   3.3958   3.7493   4.2178
     5.0755   5.1344   5.6034   6.0877   6.5901   8.5457   8.9105   8.9377
     9.2311

     occupation numbers 
     1.0000   1.0000   1.0000   1.0000   1.0000   1.0000   1.0000   1.0000
     1.0000   1.0000   1.0000   1.0000   1.0000   1.0000   1.0000   1.0000
     1.0000   1.0000   1.0000   1.0000   1.0000   0.0000   0.0000   0.0000
     0.0000

          k = 0.3333-1.1162 0.6804 (  1576 PWs)   bands (ev):

   -74.4027 -70.0027 -43.1502 -43.1492 -43.0819 -38.8066 -38.7829 -38.7813
    -5.3668  -5.1952   2.3398   2.5986   3.1850   3.5417   3.6848   3.9505
     4.8397   5.2244   5.6347   5.8759   6.2753   8.3333   8.6414   9.1075
     9.2477

     occupation numbers 
     1.0000   1.0000   1.0000   1.0000   1.0000   1.0000   1.0000   1.0000
     1.0000   1.0000   1.0000   1.0000   1.0000   1.0000   1.0000   1.0000
     1.0000   1.0000   1.0000   1.0000   1.0000   0.0000   0.0000   0.0000
     0.0000

          k = 0.3333-1.1162 1.1703 (  1573 PWs)   bands (ev):

   -74.4027 -70.0027 -43.1502 -43.1491 -43.0820 -38.8067 -38.7829 -38.7812
    -5.3483  -5.2174   2.4756   2.7877   3.0590   3.3364   3.6203   4.0363
     4.8558   5.2447   5.5570   5.8119   6.2185   8.3159   8.8025   9.0353
     9.1760

     occupation numbers 
     1.0000   1.0000   1.0000   1.0000   1.0000   1.0000   1.0000   1.0000
     1.0000   1.0000   1.0000   1.0000   1.0000   1.0000   1.0000   1.0000
     1.0000   1.0000   1.0000   1.0000   1.0000   0.0000   0.0000   0.0000
     0.0000

          k = 0.3333-1.1162-0.7893 (  1577 PWs)   bands (ev):

   -74.4028 -70.0027 -43.1502 -43.1486 -43.0820 -38.8067 -38.7829 -38.7805
    -5.5326  -5.1943   2.2235   2.5703   3.3929   3.4415   3.6911   4.2168
     5.0084   5.1416   5.5342   6.1144   6.5795   8.4522   8.9377   9.0263
     9.3952

     occupation numbers 
     1.0000   1.0000   1.0000   1.0000   1.0000   1.0000   1.0000   1.0000
     1.0000   1.0000   1.0000   1.0000   1.0000   1.0000   1.0000   1.0000
     1.0000   1.0000   1.0000   1.0000   1.0000   0.0000   0.0000   0.0000
     0.0000

          k = 0.3333-1.1162-0.2994 (  1580 PWs)   bands (ev):

   -74.4028 -70.0028 -43.1498 -43.1488 -43.0820 -38.8067 -38.7822 -38.7807
    -5.5654  -5.2729   2.4517   2.6908   3.2254   3.4689   3.6442   4.0849
     4.9480   5.1728   5.7191   6.1942   6.5813   8.4172   8.8114   9.1347
     9.4139

     occupation numbers 
     1.0000   1.0000   1.0000   1.0000   1.0000   1.0000   1.0000   1.0000
     1.0000   1.0000   1.0000   1.0000   1.0000   1.0000   1.0000   1.0000
     1.0000   1.0000   1.0000   1.0000   1.0000   0.0000   0.0000   0.0000
     0.0000

          k = 0.3333-0.6543 0.0272 (  1602 PWs)   bands (ev):

   -74.4030 -70.0030 -43.1491 -43.1484 -43.0822 -38.8070 -38.7810 -38.7800
    -5.7117  -5.5579   2.5230   2.7161   3.2571   3.3518   3.9619   4.1921
     4.9409   5.0863   6.4699   6.5550   7.0588   8.5522   8.7918   9.2415
     9.8164

     occupation numbers 
     1.0000   1.0000   1.0000   1.0000   1.0000   1.0000   1.0000   1.0000
     1.0000   1.0000   1.0000   1.0000   1.0000   1.0000   1.0000   1.0000
     1.0000   1.0000   1.0000   1.0000   1.0000   0.0000   0.0000   0.0000
     0.0000

          k = 0.3333-0.6543 0.5171 (  1589 PWs)   bands (ev):

   -74.4029 -70.0028 -43.1498 -43.1488 -43.0821 -38.8068 -38.7823 -38.7807
    -5.5368  -5.3039   2.4081   2.6493   3.2466   3.4689   3.7138   4.0666
     4.9164   5.1760   5.7679   6.2280   6.5617   8.3864   8.7789   9.1070
     9.4272

     occupation numbers 
     1.0000   1.0000   1.0000   1.0000   1.0000   1.0000   1.0000   1.0000
     1.0000   1.0000   1.0000   1.0000   1.0000   1.0000   1.0000   1.0000
     1.0000   1.0000   1.0000   1.0000   1.0000   0.0000   0.0000   0.0000
     0.0000

          k = 0.3333-0.6543 1.0070 (  1579 PWs)   bands (ev):

   -74.4028 -70.0027 -43.1503 -43.1492 -43.0820 -38.8067 -38.7830 -38.7812
    -5.3387  -5.2286   2.5539   2.9173   2.9978   3.1792   3.6023   4.0577
     4.8484   5.2455   5.5033   5.8060   6.1948   8.2867   8.8348   9.0372
     9.1380

     occupation numbers 
     1.0000   1.0000   1.0000   1.0000   1.0000   1.0000   1.0000   1.0000
     1.0000   1.0000   1.0000   1.0000   1.0000   1.0000   1.0000   1.0000
     1.0000   1.0000   1.0000   1.0000   1.0000   0.0000   0.0000   0.0000
     0.0000

          k = 0.3333-0.6543-0.9526 (  1580 PWs)   bands (ev):

   -74.4028 -70.0028 -43.1498 -43.1488 -43.0820 -38.8067 -38.7822 -38.7807
    -5.5654  -5.2729   2.4517   2.6908   3.2253   3.4688   3.6443   4.0848
     4.9481   5.1728   5.7191   6.1943   6.5813   8.4172   8.8114   9.1347
     9.4140

     occupation numbers 
     1.0000   1.0000   1.0000   1.0000   1.0000   1.0000   1.0000   1.0000
     1.0000   1.0000   1.0000   1.0000   1.0000   1.0000   1.0000   1.0000
     1.0000   1.0000   1.0000   1.0000   1.0000   0.0000   0.0000   0.0000
     0.0000

          k = 0.3333-0.6543-0.4627 (  1599 PWs)   bands (ev):

   -74.4030 -70.0029 -43.1491 -43.1484 -43.0822 -38.8070 -38.7810 -38.7800
    -5.7524  -5.5142   2.4859   2.7467   3.2583   3.3524   3.9586   4.1915
     4.9532   5.1035   6.4197   6.5892   7.0640   8.5844   8.7773   9.2604
     9.7936

     occupation numbers 
     1.0000   1.0000   1.0000   1.0000   1.0000   1.0000   1.0000   1.0000
     1.0000   1.0000   1.0000   1.0000   1.0000   1.0000   1.0000   1.0000
     1.0000   1.0000   1.0000   1.0000   1.0000   0.0000   0.0000   0.0000
     0.0000

 ------ SPIN DOWN ----------


          k = 0.0000 0.0000 0.0000 (  1617 PWs)   bands (ev):

   -74.4032 -70.0031 -43.1483 -43.1482 -43.0824 -38.8073 -38.7798 -38.7798
    -6.1270  -5.4056   2.1901   3.1499   3.1500   3.3109   4.1582   4.1582
     5.1688   5.1690   6.4751   7.3636   7.3637   8.7835   8.7836   9.3940
    10.2447

     occupation numbers 
     1.0000   1.0000   1.0000   1.0000   1.0000   1.0000   1.0000   1.0000
     1.0000   1.0000   1.0000   1.0000   1.0000   1.0000   1.0000   1.0000
     1.0000   1.0000   1.0000   1.0000   1.0000   0.0000   0.0000   0.0000
     0.0000

          k = 0.0000 0.0000 0.4899 (  1600 PWs)   bands (ev):

   -74.4030 -70.0030 -43.1491 -43.1483 -43.0821 -38.8070 -38.7811 -38.7800
    -5.9071  -5.3376   2.4236   2.8788   3.2520   3.3595   3.7843   4.1625
     5.0299   5.1518   6.1396   6.6782   7.0448   8.6318   8.7640   9.4584
    10.0280

     occupation numbers 
     1.0000   1.0000   1.0000   1.0000   1.0000   1.0000   1.0000   1.0000
     1.0000   1.0000   1.0000   1.0000   1.0000   1.0000   1.0000   1.0000
     1.0000   1.0000   1.0000   1.0000   1.0000   0.0000   0.0000   0.0000
     0.0000

          k = 0.0000 0.0000 0.9798 (  1578 PWs)   bands (ev):

   -74.4028 -70.0027 -43.1502 -43.1486 -43.0820 -38.8067 -38.7830 -38.7804
    -5.5146  -5.2120   2.1460   2.4698   3.3950   3.4771   3.8540   4.2183
     5.0010   5.1376   5.5977   6.2045   6.5943   8.3873   8.9154   8.9690
     9.4108

     occupation numbers 
     1.0000   1.0000   1.0000   1.0000   1.0000   1.0000   1.0000   1.0000
     1.0000   1.0000   1.0000   1.0000   1.0000   1.0000   1.0000   1.0000
     1.0000   1.0000   1.0000   1.0000   1.0000   0.0000   0.0000   0.0000
     0.0000

          k = 0.0000 0.4619-0.1633 (  1600 PWs)   bands (ev):

   -74.4030 -70.0030 -43.1491 -43.1484 -43.0821 -38.8070 -38.7810 -38.7800
    -5.9071  -5.3376   2.4237   2.8787   3.2521   3.3596   3.7843   4.1626
     5.0299   5.1519   6.1396   6.6782   7.0447   8.6317   8.7640   9.4584
    10.0279

     occupation numbers 
     1.0000   1.0000   1.0000   1.0000   1.0000   1.0000   1.0000   1.0000
     1.0000   1.0000   1.0000   1.0000   1.0000   1.0000   1.0000   1.0000
     1.0000   1.0000   1.0000   1.0000   1.0000   0.0000   0.0000   0.0000
     0.0000

          k = 0.0000 0.4619 0.3266 (  1598 PWs)   bands (ev):

   -74.4030 -70.0030 -43.1489 -43.1484 -43.0822 -38.8070 -38.7809 -38.7801
    -5.8362  -5.4218   2.5581   2.7746   3.2556   3.3476   3.7938   4.1774
     5.0191   5.1074   6.2177   6.6896   7.0353   8.5485   8.8781   9.4998
     9.9039

     occupation numbers 
     1.0000   1.0000   1.0000   1.0000   1.0000   1.0000   1.0000   1.0000
     1.0000   1.0000   1.0000   1.0000   1.0000   1.0000   1.0000   1.0000
     1.0000   1.0000   1.0000   1.0000   1.0000   0.0000   0.0000   0.0000
     0.0000

          k = 0.0000 0.4619 0.8165 (  1588 PWs)   bands (ev):

   -74.4029 -70.0028 -43.1498 -43.1488 -43.0821 -38.8068 -38.7823 -38.7807
    -5.5069  -5.3351   2.3788   2.6211   3.2659   3.4706   3.7799   4.0440
     4.9009   5.1846   5.8123   6.2750   6.5398   8.3762   8.7582   9.0889
     9.4411

     occupation numbers 
     1.0000   1.0000   1.0000   1.0000   1.0000   1.0000   1.0000   1.0000
     1.0000   1.0000   1.0000   1.0000   1.0000   1.0000   1.0000   1.0000
     1.0000   1.0000   1.0000   1.0000   1.0000   0.0000   0.0000   0.0000
     0.0000

          k = 0.0000 0.4619-1.1431 (  1573 PWs)   bands (ev):

   -74.4027 -70.0027 -43.1503 -43.1491 -43.0819 -38.8066 -38.7830 -38.7812
    -5.3615  -5.2016   2.3762   2.6480   3.1500   3.4952   3.6582   3.9826
     4.8477   5.2331   5.6183   5.8496   6.2537   8.3397   8.6895   9.0925
     9.2244

     occupation numbers 
     1.0000   1.0000   1.0000   1.0000   1.0000   1.0000   1.0000   1.0000
     1.0000   1.0000   1.0000   1.0000   1.0000   1.0000   1.0000   1.0000
     1.0000   1.0000   1.0000   1.0000   1.0000   0.0000   0.0000   0.0000
     0.0000

          k = 0.0000 0.4619-0.6532 (  1585 PWs)   bands (ev):

   -74.4028 -70.0028 -43.1499 -43.1488 -43.0820 -38.8068 -38.7823 -38.7807
    -5.6251  -5.2084   2.6071   2.8082   3.1639   3.3438   3.5077   4.0988
     4.9986   5.1508   5.5668   6.0842   6.5929   8.5178   8.8809   9.1124
     9.2855

     occupation numbers 
     1.0000   1.0000   1.0000   1.0000   1.0000   1.0000   1.0000   1.0000
     1.0000   1.0000   1.0000   1.0000   1.0000   1.0000   1.0000   1.0000
     1.0000   1.0000   1.0000   1.0000   1.0000   0.0000   0.0000   0.0000
     0.0000

          k = 0.0000 0.9238-0.3266 (  1578 PWs)   bands (ev):

   -74.4028 -70.0027 -43.1502 -43.1486 -43.0820 -38.8067 -38.7829 -38.7805
    -5.5145  -5.2120   2.1460   2.4697   3.3952   3.4771   3.8539   4.2184
     5.0010   5.1376   5.5977   6.2045   6.5941   8.3872   8.9154   8.9689
     9.4107

     occupation numbers 
     1.0000   1.0000   1.0000   1.0000   1.0000   1.0000   1.0000   1.0000
     1.0000   1.0000   1.0000   1.0000   1.0000   1.0000   1.0000   1.0000
     1.0000   1.0000   1.0000   1.0000   1.0000   0.0000   0.0000   0.0000
     0.0000

          k = 0.0000 0.9238 0.1633 (  1588 PWs)   bands (ev):

   -74.4029 -70.0028 -43.1498 -43.1489 -43.0821 -38.8068 -38.7822 -38.7808
    -5.5069  -5.3351   2.3787   2.6210   3.2660   3.4706   3.7799   4.0440
     4.9008   5.1846   5.8123   6.2750   6.5397   8.3761   8.7581   9.0889
     9.4410

     occupation numbers 
     1.0000   1.0000   1.0000   1.0000   1.0000   1.0000   1.0000   1.0000
     1.0000   1.0000   1.0000   1.0000   1.0000   1.0000   1.0000   1.0000
     1.0000   1.0000   1.0000   1.0000   1.0000   0.0000   0.0000   0.0000
     0.0000

          k = 0.0000 0.9238 0.6532 (  1582 PWs)   bands (ev):

   -74.4028 -70.0028 -43.1502 -43.1487 -43.0820 -38.8068 -38.7829 -38.7805
    -5.4544  -5.2771   2.1497   2.4642   3.4010   3.4385   3.8672   4.2170
     5.0322   5.1121   5.6328   6.2175   6.6012   8.4414   8.8763   8.8935
     9.3293

     occupation numbers 
     1.0000   1.0000   1.0000   1.0000   1.0000   1.0000   1.0000   1.0000
     1.0000   1.0000   1.0000   1.0000   1.0000   1.0000   1.0000   1.0000
     1.0000   1.0000   1.0000   1.0000   1.0000   0.0000   0.0000   0.0000
     0.0000

          k = 0.0000 0.9238-1.3064 (  1588 PWs)   bands (ev):

   -74.4028 -70.0028 -43.1503 -43.1493 -43.0820 -38.8067 -38.7830 -38.7814
    -5.3713  -5.1900   2.3056   2.5557   3.2102   3.5679   3.7289   3.9084
     4.8255   5.2029   5.6423   5.8817   6.2909   8.3041   8.6018   9.0881
     9.2955

     occupation numbers 
     1.0000   1.0000   1.0000   1.0000   1.0000   1.0000   1.0000   1.0000
     1.0000   1.0000   1.0000   1.0000   1.0000   1.0000   1.0000   1.0000
     1.0000   1.0000   1.0000   1.0000   1.0000   0.0000   0.0000   0.0000
     0.0000

          k = 0.0000 0.9238-0.8165 (  1573 PWs)   bands (ev):

   -74.4027 -70.0027 -43.1502 -43.1491 -43.0819 -38.8066 -38.7829 -38.7813
    -5.3615  -5.2016   2.3762   2.6479   3.1501   3.4953   3.6582   3.9826
     4.8477   5.2332   5.6183   5.8496   6.2535   8.3395   8.6896   9.0925
     9.2244

     occupation numbers 
     1.0000   1.0000   1.0000   1.0000   1.0000   1.0000   1.0000   1.0000
     1.0000   1.0000   1.0000   1.0000   1.0000   1.0000   1.0000   1.0000
     1.0000   1.0000   1.0000   1.0000   1.0000   0.0000   0.0000   0.0000
     0.0000

          k = 0.3333-0.1925-0.1361 (  1605 PWs)   bands (ev):

   -74.4031 -70.0031 -43.1482 -43.1481 -43.0823 -38.8072 -38.7797 -38.7797
    -5.9723  -5.5930   2.4341   3.1030   3.1643   3.1643   4.2008   4.2009
     5.0975   5.0977   6.4977   7.3407   7.3408   8.8910   8.8911   9.4154
    10.3007

     occupation numbers 
     1.0000   1.0000   1.0000   1.0000   1.0000   1.0000   1.0000   1.0000
     1.0000   1.0000   1.0000   1.0000   1.0000   1.0000   1.0000   1.0000
     1.0000   1.0000   1.0000   1.0000   1.0000   0.0000   0.0000   0.0000
     0.0000

          k = 0.3333-0.1925 0.3538 (  1594 PWs)   bands (ev):

   -74.4030 -70.0029 -43.1490 -43.1483 -43.0821 -38.8070 -38.7810 -38.7800
    -5.8743  -5.3774   2.5388   2.8107   3.2571   3.3591   3.7391   4.1728
     5.0458   5.1323   6.1584   6.7079   7.0383   8.5639   8.8824   9.5495
     9.9268

     occupation numbers 
     1.0000   1.0000   1.0000   1.0000   1.0000   1.0000   1.0000   1.0000
     1.0000   1.0000   1.0000   1.0000   1.0000   1.0000   1.0000   1.0000
     1.0000   1.0000   1.0000   1.0000   1.0000   0.0000   0.0000   0.0000
     0.0000

          k = 0.3333-0.1925 0.8437 (  1583 PWs)   bands (ev):

   -74.4028 -70.0028 -43.1503 -43.1487 -43.0820 -38.8068 -38.7830 -38.7805
    -5.5149  -5.2179   2.3718   2.7983   3.2241   3.3792   3.4760   4.2148
     5.0507   5.1465   5.4668   6.0153   6.5605   8.5189   8.9882   9.0347
     9.3042

     occupation numbers 
     1.0000   1.0000   1.0000   1.0000   1.0000   1.0000   1.0000   1.0000
     1.0000   1.0000   1.0000   1.0000   1.0000   1.0000   1.0000   1.0000
     1.0000   1.0000   1.0000   1.0000   1.0000   0.0000   0.0000   0.0000
     0.0000

          k = 0.3333-0.1925-1.1159 (  1581 PWs)   bands (ev):

   -74.4028 -70.0028 -43.1502 -43.1486 -43.0820 -38.8068 -38.7829 -38.7805
    -5.4255  -5.3100   2.2371   2.5714   3.3284   3.3957   3.7493   4.2176
     5.0754   5.1344   5.6034   6.0878   6.5903   8.5458   8.9105   8.9377
     9.2311

     occupation numbers 
     1.0000   1.0000   1.0000   1.0000   1.0000   1.0000   1.0000   1.0000
     1.0000   1.0000   1.0000   1.0000   1.0000   1.0000   1.0000   1.0000
     1.0000   1.0000   1.0000   1.0000   1.0000   0.0000   0.0000   0.0000
     0.0000

          k = 0.3333-0.1925-0.6260 (  1602 PWs)   bands (ev):

   -74.4030 -70.0030 -43.1491 -43.1483 -43.0822 -38.8070 -38.7811 -38.7800
    -5.7116  -5.5580   2.5230   2.7162   3.2570   3.3518   3.9619   4.1919
     4.9410   5.0862   6.4699   6.5550   7.0589   8.5523   8.7917   9.2415
     9.8165

     occupation numbers 
     1.0000   1.0000   1.0000   1.0000   1.0000   1.0000   1.0000   1.0000
     1.0000   1.0000   1.0000   1.0000   1.0000   1.0000   1.0000   1.0000
     1.0000   1.0000   1.0000   1.0000   1.0000   0.0000   0.0000   0.0000
     0.0000

          k = 0.3333 0.2694-0.2994 (  1594 PWs)   bands (ev):

   -74.4030 -70.0029 -43.1489 -43.1484 -43.0821 -38.8070 -38.7809 -38.7800
    -5.8743  -5.3774   2.5388   2.8107   3.2572   3.3591   3.7390   4.1729
     5.0458   5.1324   6.1583   6.7079   7.0382   8.5638   8.8824   9.5496
     9.9268

     occupation numbers 
     1.0000   1.0000   1.0000   1.0000   1.0000   1.0000   1.0000   1.0000
     1.0000   1.0000   1.0000   1.0000   1.0000   1.0000   1.0000   1.0000
     1.0000   1.0000   1.0000   1.0000   1.0000   0.0000   0.0000   0.0000
     0.0000

          k = 0.3333 0.2694 0.1905 (  1598 PWs)   bands (ev):

   -74.4030 -70.0030 -43.1490 -43.1483 -43.0822 -38.8071 -38.7810 -38.7800
    -5.9235  -5.3179   2.4385   2.8900   3.2559   3.3629   3.7318   4.1627
     5.0464   5.1655   6.0918   6.6925   7.0510   8.6193   8.7939   9.4801
    10.0856

     occupation numbers 
     1.0000   1.0000   1.0000   1.0000   1.0000   1.0000   1.0000   1.0000
     1.0000   1.0000   1.0000   1.0000   1.0000   1.0000   1.0000   1.0000
     1.0000   1.0000   1.0000   1.0000   1.0000   0.0000   0.0000   0.0000
     0.0000

          k = 0.3333 0.2694 0.6804 (  1583 PWs)   bands (ev):

   -74.4028 -70.0028 -43.1498 -43.1488 -43.0820 -38.8068 -38.7823 -38.7807
    -5.6214  -5.2127   2.5909   2.8011   3.1659   3.3659   3.5126   4.0989
     4.9957   5.1502   5.5837   6.0961   6.5970   8.5107   8.8693   9.1211
     9.3004

     occupation numbers 
     1.0000   1.0000   1.0000   1.0000   1.0000   1.0000   1.0000   1.0000
     1.0000   1.0000   1.0000   1.0000   1.0000   1.0000   1.0000   1.0000
     1.0000   1.0000   1.0000   1.0000   1.0000   0.0000   0.0000   0.0000
     0.0000

          k = 0.3333 0.2694-1.2792 (  1576 PWs)   bands (ev):

   -74.4027 -70.0027 -43.1503 -43.1491 -43.0819 -38.8067 -38.7830 -38.7812
    -5.3668  -5.1953   2.3398   2.5986   3.1849   3.5416   3.6847   3.9505
     4.8398   5.2243   5.6347   5.8759   6.2754   8.3334   8.6414   9.1075
     9.2478

     occupation numbers 
     1.0000   1.0000   1.0000   1.0000   1.0000   1.0000   1.0000   1.0000
     1.0000   1.0000   1.0000   1.0000   1.0000   1.0000   1.0000   1.0000
     1.0000   1.0000   1.0000   1.0000   1.0000   0.0000   0.0000   0.0000
     0.0000

          k = 0.3333 0.2694-0.7893 (  1589 PWs)   bands (ev):

   -74.4029 -70.0028 -43.1498 -43.1488 -43.0821 -38.8069 -38.7823 -38.7807
    -5.5368  -5.3039   2.4081   2.6493   3.2466   3.4690   3.7137   4.0666
     4.9164   5.1760   5.7678   6.2279   6.5618   8.3864   8.7789   9.1071
     9.4273

     occupation numbers 
     1.0000   1.0000   1.0000   1.0000   1.0000   1.0000   1.0000   1.0000
     1.0000   1.0000   1.0000   1.0000   1.0000   1.0000   1.0000   1.0000
     1.0000   1.0000   1.0000   1.0000   1.0000   0.0000   0.0000   0.0000
     0.0000

          k = 0.3333 0.7313-0.4627 (  1583 PWs)   bands (ev):

   -74.4028 -70.0028 -43.1502 -43.1487 -43.0820 -38.8068 -38.7829 -38.7805
    -5.5149  -5.2178   2.3717   2.7983   3.2240   3.3794   3.4760   4.2150
     5.0507   5.1466   5.4667   6.0152   6.5603   8.5187   8.9882   9.0347
     9.3041

     occupation numbers 
     1.0000   1.0000   1.0000   1.0000   1.0000   1.0000   1.0000   1.0000
     1.0000   1.0000   1.0000   1.0000   1.0000   1.0000   1.0000   1.0000
     1.0000   1.0000   1.0000   1.0000   1.0000   0.0000   0.0000   0.0000
     0.0000

          k = 0.3333 0.7313 0.0272 (  1583 PWs)   bands (ev):

   -74.4028 -70.0028 -43.1498 -43.1488 -43.0820 -38.8068 -38.7823 -38.7807
    -5.6213  -5.2127   2.5908   2.8011   3.1659   3.3660   3.5126   4.0990
     4.9956   5.1503   5.5838   6.0960   6.5970   8.5106   8.8693   9.1210
     9.3003

     occupation numbers 
     1.0000   1.0000   1.0000   1.0000   1.0000   1.0000   1.0000   1.0000
     1.0000   1.0000   1.0000   1.0000   1.0000   1.0000   1.0000   1.0000
     1.0000   1.0000   1.0000   1.0000   1.0000   0.0000   0.0000   0.0000
     0.0000

          k = 0.3333 0.7313 0.5171 (  1587 PWs)   bands (ev):

   -74.4028 -70.0028 -43.1502 -43.1487 -43.0821 -38.8069 -38.7829 -38.7805
    -5.4764  -5.2600   2.3773   2.8305   3.1143   3.3828   3.5325   4.2147
     5.0777   5.1397   5.4857   5.9904   6.5668   8.5452   8.9807   9.0333
     9.2118

     occupation numbers 
     1.0000   1.0000   1.0000   1.0000   1.0000   1.0000   1.0000   1.0000
     1.0000   1.0000   1.0000   1.0000   1.0000   1.0000   1.0000   1.0000
     1.0000   1.0000   1.0000   1.0000   1.0000   0.0000   0.0000   0.0000
     0.0000

          k = 0.3333 0.7313-1.4425 (  1573 PWs)   bands (ev):

   -74.4027 -70.0027 -43.1502 -43.1491 -43.0820 -38.8067 -38.7829 -38.7812
    -5.3483  -5.2174   2.4756   2.7877   3.0590   3.3363   3.6204   4.0363
     4.8558   5.2447   5.5570   5.8119   6.2186   8.3158   8.8025   9.0352
     9.1760

     occupation numbers 
     1.0000   1.0000   1.0000   1.0000   1.0000   1.0000   1.0000   1.0000
     1.0000   1.0000   1.0000   1.0000   1.0000   1.0000   1.0000   1.0000
     1.0000   1.0000   1.0000   1.0000   1.0000   0.0000   0.0000   0.0000
     0.0000

          k = 0.3333 0.7313-0.9526 (  1579 PWs)   bands (ev):

   -74.4027 -70.0027 -43.1502 -43.1492 -43.0820 -38.8067 -38.7830 -38.7813
    -5.3387  -5.2286   2.5539   2.9173   2.9978   3.1793   3.6023   4.0578
     4.8483   5.2456   5.5033   5.8059   6.1947   8.2866   8.8347   9.0371
     9.1380

     occupation numbers 
     1.0000   1.0000   1.0000   1.0000   1.0000   1.0000   1.0000   1.0000
     1.0000   1.0000   1.0000   1.0000   1.0000   1.0000   1.0000   1.0000
     1.0000   1.0000   1.0000   1.0000   1.0000   0.0000   0.0000   0.0000
     0.0000

          k = 0.3333-1.1162 0.1905 (  1581 PWs)   bands (ev):

   -74.4028 -70.0028 -43.1502 -43.1487 -43.0820 -38.8068 -38.7829 -38.7805
    -5.4255  -5.3100   2.2370   2.5713   3.3285   3.3958   3.7493   4.2177
     5.0755   5.1344   5.6034   6.0877   6.5901   8.5457   8.9105   8.9377
     9.2311

     occupation numbers 
     1.0000   1.0000   1.0000   1.0000   1.0000   1.0000   1.0000   1.0000
     1.0000   1.0000   1.0000   1.0000   1.0000   1.0000   1.0000   1.0000
     1.0000   1.0000   1.0000   1.0000   1.0000   0.0000   0.0000   0.0000
     0.0000

          k = 0.3333-1.1162 0.6804 (  1576 PWs)   bands (ev):

   -74.4027 -70.0027 -43.1502 -43.1492 -43.0819 -38.8067 -38.7829 -38.7813
    -5.3668  -5.1953   2.3398   2.5985   3.1850   3.5417   3.6847   3.9505
     4.8397   5.2244   5.6347   5.8759   6.2753   8.3333   8.6414   9.1075
     9.2477

     occupation numbers 
     1.0000   1.0000   1.0000   1.0000   1.0000   1.0000   1.0000   1.0000
     1.0000   1.0000   1.0000   1.0000   1.0000   1.0000   1.0000   1.0000
     1.0000   1.0000   1.0000   1.0000   1.0000   0.0000   0.0000   0.0000
     0.0000

          k = 0.3333-1.1162 1.1703 (  1573 PWs)   bands (ev):

   -74.4027 -70.0027 -43.1502 -43.1491 -43.0820 -38.8067 -38.7829 -38.7812
    -5.3483  -5.2174   2.4756   2.7877   3.0590   3.3364   3.6203   4.0363
     4.8558   5.2447   5.5570   5.8119   6.2185   8.3159   8.8025   9.0353
     9.1760

     occupation numbers 
     1.0000   1.0000   1.0000   1.0000   1.0000   1.0000   1.0000   1.0000
     1.0000   1.0000   1.0000   1.0000   1.0000   1.0000   1.0000   1.0000
     1.0000   1.0000   1.0000   1.0000   1.0000   0.0000   0.0000   0.0000
     0.0000

          k = 0.3333-1.1162-0.7893 (  1577 PWs)   bands (ev):

   -74.4028 -70.0027 -43.1502 -43.1486 -43.0819 -38.8067 -38.7829 -38.7805
    -5.5326  -5.1943   2.2235   2.5703   3.3930   3.4415   3.6911   4.2168
     5.0084   5.1416   5.5342   6.1144   6.5795   8.4522   8.9377   9.0263
     9.3952

     occupation numbers 
     1.0000   1.0000   1.0000   1.0000   1.0000   1.0000   1.0000   1.0000
     1.0000   1.0000   1.0000   1.0000   1.0000   1.0000   1.0000   1.0000
     1.0000   1.0000   1.0000   1.0000   1.0000   0.0000   0.0000   0.0000
     0.0000

          k = 0.3333-1.1162-0.2994 (  1580 PWs)   bands (ev):

   -74.4028 -70.0028 -43.1497 -43.1488 -43.0820 -38.8068 -38.7822 -38.7807
    -5.5654  -5.2729   2.4517   2.6908   3.2254   3.4689   3.6442   4.0848
     4.9480   5.1728   5.7191   6.1942   6.5813   8.4171   8.8113   9.1347
     9.4139

     occupation numbers 
     1.0000   1.0000   1.0000   1.0000   1.0000   1.0000   1.0000   1.0000
     1.0000   1.0000   1.0000   1.0000   1.0000   1.0000   1.0000   1.0000
     1.0000   1.0000   1.0000   1.0000   1.0000   0.0000   0.0000   0.0000
     0.0000

          k = 0.3333-0.6543 0.0272 (  1602 PWs)   bands (ev):

   -74.4030 -70.0030 -43.1491 -43.1484 -43.0822 -38.8070 -38.7810 -38.7800
    -5.7116  -5.5580   2.5230   2.7161   3.2571   3.3519   3.9618   4.1920
     4.9409   5.0863   6.4699   6.5550   7.0588   8.5522   8.7918   9.2415
     9.8164

     occupation numbers 
     1.0000   1.0000   1.0000   1.0000   1.0000   1.0000   1.0000   1.0000
     1.0000   1.0000   1.0000   1.0000   1.0000   1.0000   1.0000   1.0000
     1.0000   1.0000   1.0000   1.0000   1.0000   0.0000   0.0000   0.0000
     0.0000

          k = 0.3333-0.6543 0.5171 (  1589 PWs)   bands (ev):

   -74.4029 -70.0028 -43.1498 -43.1488 -43.0821 -38.8069 -38.7823 -38.7807
    -5.5368  -5.3039   2.4081   2.6493   3.2466   3.4689   3.7138   4.0666
     4.9164   5.1760   5.7679   6.2280   6.5617   8.3863   8.7789   9.1070
     9.4272

     occupation numbers 
     1.0000   1.0000   1.0000   1.0000   1.0000   1.0000   1.0000   1.0000
     1.0000   1.0000   1.0000   1.0000   1.0000   1.0000   1.0000   1.0000
     1.0000   1.0000   1.0000   1.0000   1.0000   0.0000   0.0000   0.0000
     0.0000

          k = 0.3333-0.6543 1.0070 (  1579 PWs)   bands (ev):

   -74.4027 -70.0027 -43.1503 -43.1491 -43.0820 -38.8067 -38.7830 -38.7812
    -5.3387  -5.2286   2.5539   2.9173   2.9978   3.1793   3.6023   4.0577
     4.8484   5.2455   5.5033   5.8060   6.1948   8.2867   8.8348   9.0371
     9.1380

     occupation numbers 
     1.0000   1.0000   1.0000   1.0000   1.0000   1.0000   1.0000   1.0000
     1.0000   1.0000   1.0000   1.0000   1.0000   1.0000   1.0000   1.0000
     1.0000   1.0000   1.0000   1.0000   1.0000   0.0000   0.0000   0.0000
     0.0000

          k = 0.3333-0.6543-0.9526 (  1580 PWs)   bands (ev):

   -74.4028 -70.0028 -43.1498 -43.1488 -43.0820 -38.8068 -38.7823 -38.7807
    -5.5654  -5.2729   2.4518   2.6908   3.2254   3.4688   3.6443   4.0847
     4.9481   5.1728   5.7191   6.1943   6.5813   8.4172   8.8114   9.1347
     9.4139

     occupation numbers 
     1.0000   1.0000   1.0000   1.0000   1.0000   1.0000   1.0000   1.0000
     1.0000   1.0000   1.0000   1.0000   1.0000   1.0000   1.0000   1.0000
     1.0000   1.0000   1.0000   1.0000   1.0000   0.0000   0.0000   0.0000
     0.0000

          k = 0.3333-0.6543-0.4627 (  1599 PWs)   bands (ev):

   -74.4030 -70.0030 -43.1491 -43.1484 -43.0822 -38.8070 -38.7810 -38.7800
    -5.7524  -5.5143   2.4859   2.7467   3.2584   3.3524   3.9586   4.1914
     4.9532   5.1035   6.4197   6.5892   7.0640   8.5844   8.7773   9.2604
     9.7936

     occupation numbers 
     1.0000   1.0000   1.0000   1.0000   1.0000   1.0000   1.0000   1.0000
     1.0000   1.0000   1.0000   1.0000   1.0000   1.0000   1.0000   1.0000
     1.0000   1.0000   1.0000   1.0000   1.0000   0.0000   0.0000   0.0000
     0.0000

     the Fermi energy is     7.8188 ev

!    total energy              =    -705.55818071 Ry
     total all-electron energy =     -6231.274988 Ry
     estimated scf accuracy    <          7.7E-12 Ry
     smearing contrib. (-TS)   =      -0.00000001 Ry
     internal energy E=F+TS    =    -705.55818071 Ry

     The total energy is F=E-TS. E is the sum of the following terms:
     one-electron contribution =    -304.66515515 Ry
     hartree contribution      =     169.26310293 Ry
     xc contribution           =     -66.17884646 Ry
     ewald contribution        =    -256.46491091 Ry
     one-center paw contrib.   =    -247.51237111 Ry
      -> PAW hartree energy AE =     175.27721438 Ry
      -> PAW hartree energy PS =    -176.23875936 Ry
      -> PAW xc energy AE      =    -104.51254572 Ry
      -> PAW xc energy PS      =      27.85322883 Ry
      -> total E_H with PAW    =     168.30155795 Ry
      -> total E_XC with PAW   =    -142.83816335 Ry

     total magnetization       =    -0.00 Bohr mag/cell
     absolute magnetization    =     8.97 Bohr mag/cell

     convergence has been achieved in  14 iterations

     Forces acting on atoms (cartesian axes, Ry/au):

     atom    1 type  1   force =    -0.00000133    0.00000077    0.00000193
     atom    2 type  2   force =     0.00000091   -0.00000052    0.00000093
     atom    3 type  3   force =     0.00000002   -0.00000001   -0.00000139
     atom    4 type  3   force =     0.00000040   -0.00000023   -0.00000147
     The non-local contrib.  to forces
     atom    1 type  1   force =     0.00296627   -0.00171258   -0.00117908
     atom    2 type  2   force =     0.00296251   -0.00171041   -0.00117753
     atom    3 type  3   force =    -0.00203506    0.00117494    0.00084278
     atom    4 type  3   force =    -0.00203344    0.00117400    0.00084219
     The ionic contribution  to forces
     atom    1 type  1   force =     0.30741367   -0.17748700   -0.12587358
     atom    2 type  2   force =     0.30776786   -0.17769060   -0.12601636
     atom    3 type  3   force =    -0.30752984    0.17755305    0.12591936
     atom    4 type  3   force =    -0.30765169    0.17762455    0.12597058
     The local contribution  to forces
     atom    1 type  1   force =    -0.31394828    0.18125912    0.12851102
     atom    2 type  2   force =    -0.31427779    0.18149524    0.12865192
     atom    3 type  3   force =     0.30891274   -0.17835213   -0.12649589
     atom    4 type  3   force =     0.30903481   -0.17842254   -0.12654695
     The core correction contribution to forces
     atom    1 type  1   force =     0.00327759   -0.00189232   -0.00133785
     atom    2 type  2   force =     0.00327919   -0.00189279   -0.00133840
     atom    3 type  3   force =     0.00036343   -0.00020982   -0.00014945
     atom    4 type  3   force =     0.00036343   -0.00020982   -0.00014945
     The Hubbard contrib.    to forces
     atom    1 type  1   force =     0.00000000    0.00000000    0.00000000
     atom    2 type  2   force =     0.00000000    0.00000000    0.00000000
     atom    3 type  3   force =     0.00000000    0.00000000    0.00000000
     atom    4 type  3   force =     0.00000000    0.00000000    0.00000000
     The SCF correction term to forces
     atom    1 type  1   force =     0.00000110   -0.00000063   -0.00000050
     atom    2 type  2   force =     0.00000127   -0.00000073   -0.00000062
     atom    3 type  3   force =     0.00000043   -0.00000025   -0.00000012
     atom    4 type  3   force =    -0.00000050    0.00000029    0.00000024

     Total force =     0.000004     Total SCF correction =     0.000002
     SCF correction compared to forces is large: reduce conv_thr to get better values


     Computing stress (Cartesian axis) and pressure

          total   stress  (Ry/bohr**3)                   (kbar)     P=     -382.14
  -0.00265626   0.00006825   0.00005088         -390.75       10.04        7.49
   0.00006825  -0.00257745  -0.00002938           10.04     -379.16       -4.32
   0.00005088  -0.00002938  -0.00255951            7.49       -4.32     -376.52

     kinetic stress (kbar)  15482.92     19.64     14.25
                               19.64  15505.59     -8.23
                               14.25     -8.23  15511.02

     local   stress (kbar)  -3378.21   1110.71    785.26
                             1110.71  -2095.68   -453.37
                              785.26   -453.37  -1771.44

     nonloc. stress (kbar)   -913.61    -10.42     -7.34
                              -10.42   -925.65      4.24
                               -7.34      4.24   -928.71

     hartree stress (kbar)  14852.26   -380.30   -268.86
                             -380.30  14413.13    155.23
                             -268.86    155.23  14302.09

     exc-cor stress (kbar)  -2383.39     -1.62     -1.14
                               -1.62  -2385.26      0.66
                               -1.14      0.66  -2385.73

     corecor stress (kbar)  -2678.37      0.82      0.58
                                0.82  -2677.43     -0.33
                                0.58     -0.33  -2677.19

     ewald   stress (kbar) -21372.34   -728.78   -515.26
                             -728.78 -22213.87    297.48
                             -515.26    297.48 -22426.58

     hubbard stress (kbar)      0.00      0.00      0.00
                                0.00      0.00      0.00
                                0.00      0.00      0.00

     DFT-D   stress (kbar)      0.00      0.00      0.00
                                0.00      0.00      0.00
                                0.00      0.00      0.00

     XDM     stress (kbar)      0.00      0.00      0.00
                                0.00      0.00      0.00
                                0.00      0.00      0.00

     dft-nl  stress (kbar)      0.00      0.00      0.00
                                0.00      0.00      0.00
                                0.00      0.00      0.00

     TS-vdW  stress (kbar)      0.00      0.00      0.00
                                0.00      0.00      0.00
                                0.00      0.00      0.00

     MDB     stress (kbar)      0.00      0.00      0.00
                                0.00      0.00      0.00
                                0.00      0.00      0.00

     3D-RISM stress (kbar)      0.00      0.00      0.00
                                0.00      0.00      0.00
                                0.00      0.00      0.00


     BFGS Geometry Optimization
     Energy error            =      0.0E+00 Ry
     Gradient error          =      1.9E-06 Ry/Bohr
     Cell gradient error     =      3.9E+02 kbar

     number of scf cycles    =   1
     number of bfgs steps    =   0

     enthalpy           new  =    -705.5581807126 Ry

     new trust radius        =       0.3176701665 bohr
WARNING! With ibrav=0, cell_dofree='ibrav' has no effect. 
     new conv_thr            =            1.0E-10 Ry

     new unit-cell volume =    467.23759 a.u.^3 (    69.23747 Ang^3 )
     density =      4.17323 g/cm^3

CELL_PARAMETERS (angstrom)
   7.305105496   0.013350047   0.009953601
   1.832056903   3.173216160  -0.000000012
   1.832266617   1.057617550   2.991682189

ATOMIC_POSITIONS (crystal)
Mn1              0.3697676417        0.7534821763        0.7535003640
Mn2              0.8697658743        0.7534833410        0.7535015095
S                0.0052336285        0.9965169575        0.9964988320
S                0.5052328876        0.9965174652        0.9964992945



     Writing config-only to output data dir ./temp/mns.save/ :
     XML data file
     NEW-OLD atomic charge density approx. for the potential

     Check: negative core charge=   -0.000081
     Generating pointlists ...
     new r_m :   0.1144 (alat units)  1.6921 (a.u.) for type    1
     new r_m :   0.1144 (alat units)  1.6921 (a.u.) for type    2
     new r_m :   0.1144 (alat units)  1.6921 (a.u.) for type    3

     total cpu time spent up to now is       39.2 secs

     Self-consistent Calculation

     iteration #  1     ecut=    30.00 Ry     beta= 0.70
     Davidson diagonalization with overlap

---- Real-time Memory Report at c_bands before calling an iterative solver
            71 MiB given to the printing process from OS
             0 MiB allocation reported by mallinfo(arena+hblkhd)
          1655 MiB available memory on the node where the printing process lives
------------------
     ethr =  1.00E-06,  avg # of iterations = 11.8

     total cpu time spent up to now is       45.4 secs

     total energy              =    -705.25497246 Ry
     estimated scf accuracy    <       0.42333938 Ry

     total magnetization       =    -0.00 Bohr mag/cell
     absolute magnetization    =     8.31 Bohr mag/cell

     iteration #  2     ecut=    30.00 Ry     beta= 0.70
     Davidson diagonalization with overlap

---- Real-time Memory Report at c_bands before calling an iterative solver
            71 MiB given to the printing process from OS
             0 MiB allocation reported by mallinfo(arena+hblkhd)
          1653 MiB available memory on the node where the printing process lives
------------------
     ethr =  1.01E-03,  avg # of iterations =  5.5

     total cpu time spent up to now is       48.6 secs

     total energy              =    -705.35363898 Ry
     estimated scf accuracy    <       2.66787691 Ry

     total magnetization       =    -0.00 Bohr mag/cell
     absolute magnetization    =     7.43 Bohr mag/cell

     iteration #  3     ecut=    30.00 Ry     beta= 0.70
     Davidson diagonalization with overlap

---- Real-time Memory Report at c_bands before calling an iterative solver
            71 MiB given to the printing process from OS
             0 MiB allocation reported by mallinfo(arena+hblkhd)
          1649 MiB available memory on the node where the printing process lives
------------------
     ethr =  1.01E-03,  avg # of iterations =  4.9

     total cpu time spent up to now is       51.3 secs

     total energy              =    -705.68519615 Ry
     estimated scf accuracy    <       0.06992513 Ry

     total magnetization       =    -0.00 Bohr mag/cell
     absolute magnetization    =     8.16 Bohr mag/cell

     iteration #  4     ecut=    30.00 Ry     beta= 0.70
     Davidson diagonalization with overlap

---- Real-time Memory Report at c_bands before calling an iterative solver
            71 MiB given to the printing process from OS
             0 MiB allocation reported by mallinfo(arena+hblkhd)
          1647 MiB available memory on the node where the printing process lives
------------------
     ethr =  1.66E-04,  avg # of iterations =  4.2

     total cpu time spent up to now is       53.5 secs

     total energy              =    -705.69696284 Ry
     estimated scf accuracy    <       0.01962807 Ry

     total magnetization       =     0.00 Bohr mag/cell
[...]
     1.0000   1.0000   1.0000   1.0000   1.0000   0.0000   0.0000   0.0000
     0.0000

          k = 0.3674 0.2810-1.3704 (  1286 PWs)   bands (ev):

   -71.1554 -67.4735 -39.9478 -39.9431 -39.8243 -36.3045 -36.2749 -36.2697
    -3.3422  -3.1084   4.1808   4.3930   5.3333   5.7244   5.9115   6.2219
     7.6598   8.2629   8.5988   8.8129   9.4616  10.6287  11.0750  11.6890
    12.0462

     occupation numbers 
     1.0000   1.0000   1.0000   1.0000   1.0000   1.0000   1.0000   1.0000
     1.0000   1.0000   1.0000   1.0000   1.0000   1.0000   1.0000   1.0000
     1.0000   1.0000   1.0000   1.0000   1.0000   0.0419   0.0000   0.0000
     0.0000

          k = 0.3641 0.2829-0.8460 (  1273 PWs)   bands (ev):

   -71.1554 -67.4736 -39.9459 -39.9418 -39.8245 -36.3048 -36.2726 -36.2678
    -3.6037  -3.2656   4.2984   4.5159   5.4177   5.7010   5.9287   6.2377
     7.8242   8.1303   8.7852   9.3063   9.8625  10.7921  11.2581  11.8720
    12.2507

     occupation numbers 
     1.0000   1.0000   1.0000   1.0000   1.0000   1.0000   1.0000   1.0000
     1.0000   1.0000   1.0000   1.0000   1.0000   1.0000   1.0000   1.0000
     1.0000   1.0000   1.0000   1.0000   1.0000   0.0003   0.0000   0.0000
     0.0000

          k = 0.3576 0.7798-0.4947 (  1270 PWs)   bands (ev):

   -71.1554 -67.4735 -39.9472 -39.9415 -39.8245 -36.3047 -36.2749 -36.2669
    -3.5800  -3.1273   4.2704   4.6396   5.3799   5.6423   5.7026   6.3575
     7.9485   8.1175   8.4595   9.0196   9.6719  11.0166  11.5293  11.6658
    12.3519

     occupation numbers 
     1.0000   1.0000   1.0000   1.0000   1.0000   1.0000   1.0000   1.0000
     1.0000   1.0000   1.0000   1.0000   1.0000   1.0000   1.0000   1.0000
     1.0000   1.0000   1.0000   1.0000   1.0000   0.0000   0.0000   0.0000
     0.0000

          k = 0.3543 0.7817 0.0297 (  1270 PWs)   bands (ev):

   -71.1554 -67.4735 -39.9452 -39.9424 -39.8246 -36.3048 -36.2726 -36.2677
    -3.7457  -3.1107   4.5406   4.7234   5.2464   5.5007   5.7992   6.2540
     7.9292   8.0737   8.5024   9.1137   9.8169  11.0036  11.3653  11.9029
    12.0868

     occupation numbers 
     1.0000   1.0000   1.0000   1.0000   1.0000   1.0000   1.0000   1.0000
     1.0000   1.0000   1.0000   1.0000   1.0000   1.0000   1.0000   1.0000
     1.0000   1.0000   1.0000   1.0000   1.0000   0.0000   0.0000   0.0000
     0.0000

          k = 0.3510 0.7836 0.5541 (  1274 PWs)   bands (ev):

   -71.1554 -67.4735 -39.9473 -39.9415 -39.8246 -36.3048 -36.2749 -36.2669
    -3.5147  -3.2000   4.2809   4.6691   5.2506   5.6510   5.7725   6.3521
     7.9629   8.1167   8.4806   9.0197   9.6964  11.0606  11.5444  11.6627
    12.2038

     occupation numbers 
     1.0000   1.0000   1.0000   1.0000   1.0000   1.0000   1.0000   1.0000
     1.0000   1.0000   1.0000   1.0000   1.0000   1.0000   1.0000   1.0000
     1.0000   1.0000   1.0000   1.0000   1.0000   0.0000   0.0000   0.0000
     0.0000

          k = 0.3642 0.7760-1.5434 (  1284 PWs)   bands (ev):

   -71.1554 -67.4735 -39.9473 -39.9436 -39.8243 -36.3045 -36.2750 -36.2696
    -3.3065  -3.1537   4.3568   4.6200   5.1601   5.4436   5.9204   6.2435
     7.6812   8.2648   8.5567   8.7172   9.3645  10.5669  11.3542  11.7332
    11.8364

     occupation numbers 
     1.0000   1.0000   1.0000   1.0000   1.0000   1.0000   1.0000   1.0000
     1.0000   1.0000   1.0000   1.0000   1.0000   1.0000   1.0000   1.0000
     1.0000   1.0000   1.0000   1.0000   1.0000   0.1384   0.0000   0.0000
     0.0000

          k = 0.3609 0.7779-1.0190 (  1289 PWs)   bands (ev):

   -71.1555 -67.4735 -39.9473 -39.9436 -39.8244 -36.3046 -36.2749 -36.2696
    -3.2843  -3.1807   4.4616   4.7647   5.0826   5.2427   5.9109   6.2524
     7.6928   8.2716   8.4706   8.7398   9.3428  10.5250  11.3857  11.7502
    11.7989

     occupation numbers 
     1.0000   1.0000   1.0000   1.0000   1.0000   1.0000   1.0000   1.0000
     1.0000   1.0000   1.0000   1.0000   1.0000   1.0000   1.0000   1.0000
     1.0000   1.0000   1.0000   1.0000   1.0000   0.2574   0.0000   0.0000
     0.0000

          k = 0.3704-1.2001 0.1973 (  1276 PWs)   bands (ev):

   -71.1554 -67.4735 -39.9473 -39.9416 -39.8245 -36.3047 -36.2749 -36.2670
    -3.4097  -3.3017   4.0902   4.3674   5.5521   5.6545   6.0303   6.3550
     7.9133   8.0998   8.7116   9.1007   9.6998  11.1567  11.4014  11.5510
    11.9863

     occupation numbers 
     1.0000   1.0000   1.0000   1.0000   1.0000   1.0000   1.0000   1.0000
     1.0000   1.0000   1.0000   1.0000   1.0000   1.0000   1.0000   1.0000
     1.0000   1.0000   1.0000   1.0000   1.0000   0.0000   0.0000   0.0000
     0.0000

          k = 0.3671-1.1982 0.7217 (  1284 PWs)   bands (ev):

   -71.1554 -67.4735 -39.9473 -39.9437 -39.8243 -36.3045 -36.2749 -36.2696
    -3.3422  -3.1081   4.1816   4.3937   5.3343   5.7244   5.9128   6.2218
     7.6626   8.2655   8.6033   8.8136   9.4638  10.6313  11.0768  11.6914
    12.0464

     occupation numbers 
     1.0000   1.0000   1.0000   1.0000   1.0000   1.0000   1.0000   1.0000
     1.0000   1.0000   1.0000   1.0000   1.0000   1.0000   1.0000   1.0000
     1.0000   1.0000   1.0000   1.0000   1.0000   0.0395   0.0000   0.0000
     0.0000

          k = 0.3638-1.1963 1.2461 (  1284 PWs)   bands (ev):

   -71.1554 -67.4735 -39.9473 -39.9436 -39.8243 -36.3045 -36.2750 -36.2696
    -3.3064  -3.1538   4.3569   4.6201   5.1604   5.4437   5.9201   6.2434
     7.6812   8.2648   8.5564   8.7171   9.3642  10.5671  11.3545  11.7338
    11.8363

     occupation numbers 
     1.0000   1.0000   1.0000   1.0000   1.0000   1.0000   1.0000   1.0000
     1.0000   1.0000   1.0000   1.0000   1.0000   1.0000   1.0000   1.0000
     1.0000   1.0000   1.0000   1.0000   1.0000   0.1381   0.0000   0.0000
     0.0000

          k = 0.3770-1.2040-0.8514 (  1264 PWs)   bands (ev):

   -71.1553 -67.4734 -39.9472 -39.9415 -39.8244 -36.3046 -36.2748 -36.2669
    -3.6058  -3.0864   4.0658   4.3595   5.6453   5.7488   5.9297   6.3717
     7.9125   8.1385   8.5694   9.0442   9.6562  10.9035  11.4061  11.6632
    12.4539

     occupation numbers 
     1.0000   1.0000   1.0000   1.0000   1.0000   1.0000   1.0000   1.0000
     1.0000   1.0000   1.0000   1.0000   1.0000   1.0000   1.0000   1.0000
     1.0000   1.0000   1.0000   1.0000   1.0000   0.0000   0.0000   0.0000
     0.0000

          k = 0.3737-1.2021-0.3271 (  1276 PWs)   bands (ev):

   -71.1555 -67.4736 -39.9452 -39.9424 -39.8246 -36.3049 -36.2727 -36.2677
    -3.6535  -3.2121   4.3519   4.5677   5.3736   5.6661   5.8753   6.2501
     7.8504   8.1161   8.6883   9.2258   9.8649  10.8252  11.2754  11.8877
    12.2297

     occupation numbers 
     1.0000   1.0000   1.0000   1.0000   1.0000   1.0000   1.0000   1.0000
     1.0000   1.0000   1.0000   1.0000   1.0000   1.0000   1.0000   1.0000
     1.0000   1.0000   1.0000   1.0000   1.0000   0.0001   0.0000   0.0000
     0.0000

          k = 0.3672-0.7051 0.0243 (  1266 PWs)   bands (ev):

   -71.1555 -67.4737 -39.9423 -39.9403 -39.8249 -36.3054 -36.2684 -36.2654
    -3.8399  -3.6657   4.4949   4.6955   5.4884   5.5563   6.0862   6.3159
     7.8653   7.9695   9.7260   9.9525  10.1712  11.1482  11.4360  12.1378
    12.8869

     occupation numbers 
     1.0000   1.0000   1.0000   1.0000   1.0000   1.0000   1.0000   1.0000
     1.0000   1.0000   1.0000   1.0000   1.0000   1.0000   1.0000   1.0000
     1.0000   1.0000   1.0000   1.0000   0.9988   0.0000   0.0000   0.0000
     0.0000

          k = 0.3639-0.7032 0.5487 (  1274 PWs)   bands (ev):

   -71.1554 -67.4736 -39.9459 -39.9418 -39.8245 -36.3048 -36.2726 -36.2678
    -3.6039  -3.2654   4.2980   4.5153   5.4171   5.7002   5.9298   6.2372
     7.8224   8.1283   8.7857   9.3058   9.8593  10.7898  11.2567  11.8715
    12.2506

     occupation numbers 
     1.0000   1.0000   1.0000   1.0000   1.0000   1.0000   1.0000   1.0000
     1.0000   1.0000   1.0000   1.0000   1.0000   1.0000   1.0000   1.0000
     1.0000   1.0000   1.0000   1.0000   1.0000   0.0003   0.0000   0.0000
     0.0000

          k = 0.3606-0.7013 1.0731 (  1289 PWs)   bands (ev):

   -71.1555 -67.4735 -39.9478 -39.9431 -39.8244 -36.3046 -36.2749 -36.2697
    -3.2844  -3.1808   4.4614   4.7646   5.0829   5.2430   5.9109   6.2521
     7.6928   8.2713   8.4706   8.7395   9.3433  10.5250  11.3859  11.7503
    11.7985

     occupation numbers 
     1.0000   1.0000   1.0000   1.0000   1.0000   1.0000   1.0000   1.0000
     1.0000   1.0000   1.0000   1.0000   1.0000   1.0000   1.0000   1.0000
     1.0000   1.0000   1.0000   1.0000   1.0000   0.2573   0.0000   0.0000
     0.0000

          k = 0.3738-0.7090-1.0244 (  1276 PWs)   bands (ev):

   -71.1555 -67.4736 -39.9459 -39.9418 -39.8246 -36.3049 -36.2726 -36.2678
    -3.6537  -3.2121   4.3519   4.5676   5.3732   5.6658   5.8761   6.2500
     7.8506   8.1158   8.6884   9.2264   9.8648  10.8253  11.2751  11.8877
    12.2304

     occupation numbers 
     1.0000   1.0000   1.0000   1.0000   1.0000   1.0000   1.0000   1.0000
     1.0000   1.0000   1.0000   1.0000   1.0000   1.0000   1.0000   1.0000
     1.0000   1.0000   1.0000   1.0000   1.0000   0.0001   0.0000   0.0000
     0.0000

          k = 0.3705-0.7071-0.5000 (  1270 PWs)   bands (ev):

   -71.1556 -67.4738 -39.9424 -39.9403 -39.8249 -36.3053 -36.2685 -36.2654
    -3.9174  -3.5825   4.4356   4.7386   5.4830   5.5718   6.0846   6.3116
     7.8579   7.9883   9.6622   9.8883  10.2015  11.2030  11.3600  12.1911
    12.8552

     occupation numbers 
     1.0000   1.0000   1.0000   1.0000   1.0000   1.0000   1.0000   1.0000
     1.0000   1.0000   1.0000   1.0000   1.0000   1.0000   1.0000   1.0000
     1.0000   1.0000   1.0000   1.0000   0.9967   0.0000   0.0000   0.0000
     0.0000

     the Fermi energy is    10.4623 ev

!    total energy              =    -705.51316654 Ry
     total all-electron energy =     -6231.229974 Ry
     estimated scf accuracy    <          7.2E-13 Ry
     smearing contrib. (-TS)   =      -0.00093227 Ry
     internal energy E=F+TS    =    -705.51223427 Ry

     The total energy is F=E-TS. E is the sum of the following terms:
     one-electron contribution =    -273.74505666 Ry
     hartree contribution      =     157.96776504 Ry
     xc contribution           =     -66.37876082 Ry
     ewald contribution        =    -275.82208864 Ry
     one-center paw contrib.   =    -247.53409319 Ry
      -> PAW hartree energy AE =     179.47123154 Ry
      -> PAW hartree energy PS =    -180.42795634 Ry
      -> PAW xc energy AE      =    -104.65988632 Ry
      -> PAW xc energy PS      =      27.99204014 Ry
      -> total E_H with PAW    =     157.01104024 Ry
      -> total E_XC with PAW   =    -143.04660699 Ry

     total magnetization       =    -0.00 Bohr mag/cell
     absolute magnetization    =     7.56 Bohr mag/cell

     convergence has been achieved in  18 iterations

     Forces acting on atoms (cartesian axes, Ry/au):

     atom    1 type  1   force =     0.00033598   -0.00019398   -0.00014231
     atom    2 type  2   force =     0.00033542   -0.00019366   -0.00014208
     atom    3 type  3   force =    -0.00033590    0.00019393    0.00014229
     atom    4 type  3   force =    -0.00033550    0.00019370    0.00014210
     The non-local contrib.  to forces
     atom    1 type  1   force =    -0.00830862    0.00479698    0.00366730
     atom    2 type  2   force =    -0.00830961    0.00479755    0.00366771
     atom    3 type  3   force =    -0.00719289    0.00415282    0.00292909
     atom    4 type  3   force =    -0.00719210    0.00415236    0.00292873
     The ionic contribution  to forces
     atom    1 type  1   force =     0.60574029   -0.34972651   -0.24721831
     atom    2 type  2   force =     0.60577145   -0.34974340   -0.24723073
     atom    3 type  3   force =    -0.60575457    0.34973352    0.24722382
     atom    4 type  3   force =    -0.60575717    0.34973639    0.24722522
     The local contribution  to forces
     atom    1 type  1   force =    -0.60371720    0.34855722    0.24613434
     atom    2 type  2   force =    -0.60372771    0.34860574    0.24614604
     atom    3 type  3   force =     0.61196166   -0.35331784   -0.24974912
     atom    4 type  3   force =     0.61196387   -0.35331907   -0.24975010
     The core correction contribution to forces
     atom    1 type  1   force =     0.00672643   -0.00388352   -0.00277141
     atom    2 type  2   force =     0.00672694   -0.00388336   -0.00277154
     atom    3 type  3   force =     0.00075636   -0.00043669   -0.00030780
     atom    4 type  3   force =     0.00075634   -0.00043667   -0.00030779
     The Hubbard contrib.    to forces
     atom    1 type  1   force =     0.00000000    0.00000000    0.00000000
     atom    2 type  2   force =     0.00000000    0.00000000    0.00000000
     atom    3 type  3   force =     0.00000000    0.00000000    0.00000000
     atom    4 type  3   force =     0.00000000    0.00000000    0.00000000
     The SCF correction term to forces
     atom    1 type  1   force =     0.00000099   -0.00000057   -0.00000041
     atom    2 type  2   force =    -0.00000068    0.00000039    0.00000026
     atom    3 type  3   force =    -0.00000029    0.00000017    0.00000012
     atom    4 type  3   force =     0.00000034   -0.00000020   -0.00000014

     Total force =     0.000826     Total SCF correction =     0.000002


     Computing stress (Cartesian axis) and pressure

          total   stress  (Ry/bohr**3)                   (kbar)     P=     -342.97
  -0.00237307   0.00005199   0.00003942         -349.09        7.65        5.80
   0.00005199  -0.00231304  -0.00002276            7.65     -340.26       -3.35
   0.00003942  -0.00002276  -0.00230831            5.80       -3.35     -339.56

     kinetic stress (kbar)  19607.66    -30.20    -21.27
                              -30.20  19572.79     12.28
                              -21.27     12.28  19562.22

     local   stress (kbar)  -1169.53   1599.45   1125.67
                             1599.45    677.35   -649.91
                             1125.67   -649.91   1147.53

     nonloc. stress (kbar)  -1231.97     16.28     11.45
                               16.28  -1213.17     -6.61
                               11.45     -6.61  -1208.26

     hartree stress (kbar)  17350.06   -552.46   -388.94
                             -552.46  16712.13    224.56
                             -388.94    224.56  16550.27

     exc-cor stress (kbar)  -2980.99     -2.58     -1.83
                               -2.58  -2983.97      1.05
                               -1.83      1.05  -2984.75

     corecor stress (kbar)  -3354.35     -0.23     -0.07
                               -0.23  -3354.61      0.04
                               -0.07      0.04  -3354.67

     ewald   stress (kbar) -28569.98  -1022.61   -719.21
                            -1022.61 -29750.78    415.24
                             -719.21    415.24 -30051.91

     hubbard stress (kbar)      0.00      0.00      0.00
                                0.00      0.00      0.00
                                0.00      0.00      0.00

     DFT-D   stress (kbar)      0.00      0.00      0.00
                                0.00      0.00      0.00
                                0.00      0.00      0.00

     XDM     stress (kbar)      0.00      0.00      0.00
                                0.00      0.00      0.00
                                0.00      0.00      0.00

     dft-nl  stress (kbar)      0.00      0.00      0.00
                                0.00      0.00      0.00
                                0.00      0.00      0.00

     TS-vdW  stress (kbar)      0.00      0.00      0.00
                                0.00      0.00      0.00
                                0.00      0.00      0.00

     MDB     stress (kbar)      0.00      0.00      0.00
                                0.00      0.00      0.00
                                0.00      0.00      0.00

     3D-RISM stress (kbar)      0.00      0.00      0.00
                                0.00      0.00      0.00
                                0.00      0.00      0.00


     Writing all to output data dir ./temp/mns.save/ :
     XML data file, charge density, pseudopotentials, collected wavefunctions

     init_run     :      2.07s CPU      2.23s WALL (       2 calls)
     electrons    :    314.99s CPU    324.80s WALL (      10 calls)
     update_pot   :      2.09s CPU      2.18s WALL (       8 calls)
     forces       :      3.27s CPU      3.37s WALL (      10 calls)
     stress       :     12.22s CPU     12.31s WALL (      10 calls)

     Called by init_run:
     wfcinit      :      0.93s CPU      0.98s WALL (       2 calls)
     wfcinit:atom :      0.01s CPU      0.01s WALL (     152 calls)
     wfcinit:wfcr :      0.87s CPU      0.91s WALL (     152 calls)
     potinit      :      0.63s CPU      0.68s WALL (       2 calls)
     hinit0       :      0.41s CPU      0.43s WALL (       2 calls)

     Called by electrons:
     c_bands      :    239.29s CPU    245.07s WALL (     141 calls)
     sum_band     :     35.36s CPU     36.43s WALL (     141 calls)
     v_of_rho     :      1.24s CPU      1.26s WALL (     145 calls)
     v_h          :      0.04s CPU      0.04s WALL (     145 calls)
     v_xc         :      1.35s CPU      1.39s WALL (     165 calls)
     newd         :      6.51s CPU      6.76s WALL (     145 calls)
     PAW_pot      :     36.93s CPU     39.41s WALL (     153 calls)
     mix_rho      :      0.28s CPU      0.29s WALL (     141 calls)

     Called by c_bands:
     init_us_2    :      3.07s CPU      3.16s WALL (   23712 calls)
     cegterg      :    231.17s CPU    236.73s WALL (   10716 calls)

     Called by sum_band:
     sum_band:wei :      0.10s CPU      0.12s WALL (     141 calls)
     sum_band:loo :     23.82s CPU     24.76s WALL (     141 calls)
     sum_band:buf :      0.40s CPU      0.42s WALL (   10716 calls)
     sum_band:ini :      1.20s CPU      1.24s WALL (   10716 calls)
     sum_band:cal :      7.40s CPU      7.71s WALL (   11324 calls)
     sum_band:bec :      0.56s CPU      0.58s WALL (   11324 calls)
     addusdens    :     11.14s CPU     11.25s WALL (     141 calls)
                                        0.00s GPU  (     141 calls)
     addusd:skk   :      0.02s CPU      0.02s WALL (     423 calls)
                                        0.00s GPU  (     423 calls)

     Called by *egterg:
     cdiaghg      :     34.25s CPU     35.05s WALL (   50054 calls)
     cegterg:over :     17.26s CPU     17.74s WALL (   40402 calls)
     cegterg:upda :      8.68s CPU      8.83s WALL (   40402 calls)
     cegterg:last :     21.28s CPU     21.54s WALL (   25758 calls)
     h_psi        :    123.86s CPU    127.02s WALL (   51270 calls)
     s_psi        :     18.53s CPU     19.08s WALL (   51270 calls)
     g_psi        :      0.44s CPU      0.45s WALL (   40402 calls)

     Called by h_psi:
     h_psi:calbec :     21.76s CPU     22.44s WALL (   51270 calls)
     vloc_psi     :     82.39s CPU     84.25s WALL (   51270 calls)
     add_vuspsi   :     18.56s CPU     19.17s WALL (   51270 calls)

     General routines
     calbec       :     31.56s CPU     32.62s WALL (   66394 calls)
     fft          :      0.68s CPU      0.70s WALL (    4025 calls)
     ffts         :      0.20s CPU      0.20s WALL (     572 calls)
     fftw         :     85.07s CPU     87.21s WALL ( 1799982 calls)
     interpolate  :      0.24s CPU      0.24s WALL (     290 calls)

     Parallel routines

     PAW routines
     PAW_pot      :     36.93s CPU     39.41s WALL (     153 calls)
     PAW_symme    :      0.01s CPU      0.01s WALL (     294 calls)

     PWSCF        :   5m37.84s CPU   5m48.42s WALL


   This run was terminated on:  10:27:51  19Jan2025            

=------------------------------------------------------------------------------=
   JOB DONE.
=------------------------------------------------------------------------------=
