
     Program PWSCF v.7.3.1 starts on 31Jan2025 at 17: 5:31 

     This program is part of the open-source Quantum ESPRESSO suite
     for quantum simulation of materials; please cite
         "P. Giannozzi et al., J. Phys.:Condens. Matter 21 395502 (2009);
         "P. Giannozzi et al., J. Phys.:Condens. Matter 29 465901 (2017);
         "P. Giannozzi et al., J. Chem. Phys. 152 154105 (2020);
          URL http://www.quantum-espresso.org", 
     in publications or presentations arising from this work. More details at
     http://www.quantum-espresso.org/quote

     Parallel version (MPI), running on     6 processors

     MPI processes distributed on     1 nodes
     2049 MiB available memory on the printing compute node when the environment starts

     Reading input from vc_relax.in

     Current dimensions of program PWSCF are:
     Max number of different atomic species (ntypx) = 10
     Max number of k-points (npk) =  40000
     Max angular momentum in pseudopotentials (lmaxx) =  4
     file Mn.pbe-spn-kjpaw_psl.0.3.1.UPF: wavefunction(s)  3P 3D renormalized
     file Mn.pbe-spn-kjpaw_psl.0.3.1.UPF: wavefunction(s)  3P 3D renormalized
     file S.pbe-n-kjpaw_psl.1.0.0.UPF: wavefunction(s)  3S 3P renormalized
     Message from routine setup:
     using ibrav=0 with symmetry is DISCOURAGED, use correct ibrav instead

     R & G space division:  proc/nbgrp/npool/nimage =       6
     Subspace diagonalization in iterative solution of the eigenvalue problem:
     a serial algorithm will be used


     Parallelization info
     --------------------
     sticks:   dense  smooth     PW     G-vecs:    dense   smooth      PW
     Min         185     150     48                 2941     2116     382
     Max         188     151     50                 2942     2117     383
     Sum        1121     901    295                17651    12697    2297

     Using Slab Decomposition



     bravais-lattice index     =            0
     lattice parameter (alat)  =      14.7866  a.u.
     unit-cell volume          =     571.5148 (a.u.)^3
     number of atoms/cell      =            4
     number of atomic types    =            3
     number of electrons       =        42.00
     number of Kohn-Sham states=           25
     kinetic-energy cutoff     =      30.0000  Ry
     charge density cutoff     =     150.0000  Ry
     scf convergence threshold =      1.0E-10
     mixing beta               =       0.7000
     number of iterations used =            8  plain     mixing
     energy convergence thresh.=      1.0E-05
     force convergence thresh. =      1.0E-04
     press convergence thresh. =      5.0E-01
     Exchange-correlation= SLA  PW   PBX  PBC
                           (   1   4   3   4   0   0   0)
     nstep                     =           50


     celldm(1)=  14.786571  celldm(2)=   0.000000  celldm(3)=   0.000000
     celldm(4)=   0.000000  celldm(5)=   0.000000  celldm(6)=   0.000000

     crystal axes: (cart. coord. in units of alat)
               a(1) = (   1.000000   0.000000   0.000000 )  
               a(2) = (   0.250000   0.433013   0.000000 )  
               a(3) = (   0.250000   0.144338   0.408248 )  

     reciprocal axes: (cart. coord. in units 2 pi/alat)
               b(1) = (  1.000000 -0.577350 -0.408248 )  
               b(2) = (  0.000000  2.309401 -0.816496 )  
               b(3) = (  0.000000  0.000000  2.449490 )  


     PseudoPot. # 1 for Mn read from file:
     ./../../../pseudos/Mn.pbe-spn-kjpaw_psl.0.3.1.UPF
     MD5 check sum: ba19e6d7ccbc12830efad05ba8577d9c
     Pseudo is Projector augmented-wave + core cor, Zval = 15.0
     Generated using &quot;atomic&quot; code by A. Dal Corso  v.6.2.2
     Shape of augmentation charge: PSQ
     Using radial grid of 1187 points,  6 beta functions with: 
                l(1) =   0
                l(2) =   0
                l(3) =   1
                l(4) =   1
                l(5) =   2
                l(6) =   2
     Q(r) pseudized with 0 coefficients 


     PseudoPot. # 2 for Mn read from file:
     ./../../../pseudos/Mn.pbe-spn-kjpaw_psl.0.3.1.UPF
     MD5 check sum: ba19e6d7ccbc12830efad05ba8577d9c
     Pseudo is Projector augmented-wave + core cor, Zval = 15.0
     Generated using &quot;atomic&quot; code by A. Dal Corso  v.6.2.2
     Shape of augmentation charge: PSQ
     Using radial grid of 1187 points,  6 beta functions with: 
                l(1) =   0
                l(2) =   0
                l(3) =   1
                l(4) =   1
                l(5) =   2
                l(6) =   2
     Q(r) pseudized with 0 coefficients 


     PseudoPot. # 3 for S  read from file:
     ./../../../pseudos/S.pbe-n-kjpaw_psl.1.0.0.UPF
     MD5 check sum: fb45dfebcf3e72a4e1bd4a866ec2e262
     Pseudo is Projector augmented-wave + core cor, Zval =  6.0
     Generated using &quot;atomic&quot; code by A. Dal Corso  v.6.3
     Shape of augmentation charge: PSQ
     Using radial grid of 1151 points,  6 beta functions with: 
                l(1) =   0
                l(2) =   0
                l(3) =   1
                l(4) =   1
                l(5) =   2
                l(6) =   2
     Q(r) pseudized with 0 coefficients 


     atomic species   valence    mass     pseudopotential
     Mn1              15.00    54.93800     Mn( 1.00)
     Mn2              15.00    54.93800     Mn( 1.00)
     S                 6.00    32.06500     S ( 1.00)

     Starting magnetic structure 
     atomic species   magnetization
     Mn1             0.200
     Mn2            -0.200
     S               0.000

      2 Sym. Ops. (no inversion) found


                                    s                        frac. trans.

      isym =  1     identity                                     

 cryst.   s( 1) = (     1          0          0      )
                  (     0          1          0      )
                  (     0          0          1      )

 cart.    s( 1) = (  1.0000000  0.0000000  0.0000000 )
                  (  0.0000000  1.0000000  0.0000000 )
                  (  0.0000000  0.0000000  1.0000000 )


      isym =  2     inv. 180 deg rotation - cryst. axis [1,1,0]  

 cryst.   s( 2) = (     1         -2          0      )
                  (     0         -1          0      )
                  (     0         -1          1      )

 cart.    s( 2) = (  0.5000001 -0.8660253 -0.0000000 )
                  ( -0.8660254 -0.5000001 -0.0000001 )
                  (  0.0000000  0.0000000  1.0000000 )


   Cartesian axes

     site n.     atom                  positions (alat units)
         1        Mn1    tau(   1) = (   0.7465133   0.4350257   0.3076151  )
         2        Mn2    tau(   2) = (   1.2465120   0.4350265   0.3076157  )
         3        S      tau(   3) = (   0.5034875   0.5753367   0.4068191  )
         4        S      tau(   4) = (   1.0034870   0.5753370   0.4068193  )

   Crystallographic axes

     site n.     atom                  positions (cryst. coord.)
         1        Mn1    tau(   1) = (  0.3697678  0.7534822  0.7535000  )
         2        Mn2    tau(   2) = (  0.8697658  0.7534835  0.7535014  )
         3        S      tau(   3) = (  0.0052336  0.9965169  0.9964991  )
         4        S      tau(   4) = (  0.5052328  0.9965174  0.9964995  )

     number of k points=    38  Gaussian smearing, width (Ry)=  0.0100
                       cart. coord. in units 2pi/alat
        k(    1) = (   0.0000000   0.0000000   0.0000000), wk =   0.0133333
        k(    2) = (   0.0000000   0.0000000   0.4898979), wk =   0.0266667
        k(    3) = (   0.0000000   0.0000000   0.9797958), wk =   0.0266667
        k(    4) = (   0.0000000   0.4618802  -0.1632993), wk =   0.0266667
        k(    5) = (   0.0000000   0.4618802   0.3265986), wk =   0.0266667
        k(    6) = (   0.0000000   0.4618802   0.8164966), wk =   0.0266667
        k(    7) = (   0.0000000   0.4618802  -1.1430951), wk =   0.0266667
        k(    8) = (   0.0000000   0.4618802  -0.6531972), wk =   0.0266667
        k(    9) = (   0.0000000   0.9237604  -0.3265986), wk =   0.0266667
        k(   10) = (   0.0000000   0.9237604   0.1632993), wk =   0.0266667
        k(   11) = (   0.0000000   0.9237604   0.6531973), wk =   0.0266667
        k(   12) = (   0.0000000   0.9237604  -1.3063944), wk =   0.0266667
        k(   13) = (   0.0000000   0.9237604  -0.8164965), wk =   0.0266667
        k(   14) = (   0.3333333  -0.1924501  -0.1360827), wk =   0.0266667
        k(   15) = (   0.3333333  -0.1924501   0.3538152), wk =   0.0266667
        k(   16) = (   0.3333333  -0.1924501   0.8437131), wk =   0.0266667
        k(   17) = (   0.3333333  -0.1924501  -1.1158786), wk =   0.0266667
        k(   18) = (   0.3333333  -0.1924501  -0.6259807), wk =   0.0266667
        k(   19) = (   0.3333333   0.2694301  -0.2993820), wk =   0.0266667
        k(   20) = (   0.3333333   0.2694301   0.1905159), wk =   0.0266667
        k(   21) = (   0.3333333   0.2694301   0.6804138), wk =   0.0266667
        k(   22) = (   0.3333333   0.2694301  -1.2791779), wk =   0.0266667
        k(   23) = (   0.3333333   0.2694301  -0.7892800), wk =   0.0266667
        k(   24) = (   0.3333333   0.7313103  -0.4626813), wk =   0.0266667
        k(   25) = (   0.3333333   0.7313103   0.0272166), wk =   0.0266667
        k(   26) = (   0.3333333   0.7313103   0.5171145), wk =   0.0266667
        k(   27) = (   0.3333333   0.7313103  -1.4424772), wk =   0.0266667
        k(   28) = (   0.3333333   0.7313103  -0.9525793), wk =   0.0266667
        k(   29) = (   0.3333333  -1.1162105   0.1905158), wk =   0.0266667
        k(   30) = (   0.3333333  -1.1162105   0.6804138), wk =   0.0266667
        k(   31) = (   0.3333333  -1.1162105   1.1703117), wk =   0.0266667
        k(   32) = (   0.3333333  -1.1162105  -0.7892800), wk =   0.0266667
        k(   33) = (   0.3333333  -1.1162105  -0.2993821), wk =   0.0266667
        k(   34) = (   0.3333333  -0.6543303   0.0272165), wk =   0.0266667
        k(   35) = (   0.3333333  -0.6543303   0.5171145), wk =   0.0266667
        k(   36) = (   0.3333333  -0.6543303   1.0070124), wk =   0.0266667
        k(   37) = (   0.3333333  -0.6543303  -0.9525793), wk =   0.0266667
        k(   38) = (   0.3333333  -0.6543303  -0.4626814), wk =   0.0266667

                       cryst. coord.
        k(    1) = (   0.0000000   0.0000000   0.0000000), wk =   0.0133333
        k(    2) = (   0.0000000   0.0000000   0.2000000), wk =   0.0266667
        k(    3) = (   0.0000000   0.0000000   0.4000000), wk =   0.0266667
        k(    4) = (   0.0000000   0.2000000   0.0000000), wk =   0.0266667
        k(    5) = (   0.0000000   0.2000000   0.2000000), wk =   0.0266667
        k(    6) = (   0.0000000   0.2000000   0.4000000), wk =   0.0266667
        k(    7) = (   0.0000000   0.2000000  -0.4000000), wk =   0.0266667
        k(    8) = (   0.0000000   0.2000000  -0.2000000), wk =   0.0266667
        k(    9) = (   0.0000000   0.4000000   0.0000000), wk =   0.0266667
        k(   10) = (   0.0000000   0.4000000   0.2000000), wk =   0.0266667
        k(   11) = (   0.0000000   0.4000000   0.4000000), wk =   0.0266667
        k(   12) = (   0.0000000   0.4000000  -0.4000000), wk =   0.0266667
        k(   13) = (   0.0000000   0.4000000  -0.2000000), wk =   0.0266667
        k(   14) = (   0.3333333  -0.0000000  -0.0000000), wk =   0.0266667
        k(   15) = (   0.3333333  -0.0000000   0.2000000), wk =   0.0266667
        k(   16) = (   0.3333333  -0.0000000   0.4000000), wk =   0.0266667
        k(   17) = (   0.3333333  -0.0000000  -0.4000000), wk =   0.0266667
        k(   18) = (   0.3333333  -0.0000000  -0.2000000), wk =   0.0266667
        k(   19) = (   0.3333333   0.2000000  -0.0000000), wk =   0.0266667
        k(   20) = (   0.3333333   0.2000000   0.2000000), wk =   0.0266667
        k(   21) = (   0.3333333   0.2000000   0.4000000), wk =   0.0266667
        k(   22) = (   0.3333333   0.2000000  -0.4000000), wk =   0.0266667
        k(   23) = (   0.3333333   0.2000000  -0.2000000), wk =   0.0266667
        k(   24) = (   0.3333333   0.4000000   0.0000000), wk =   0.0266667
        k(   25) = (   0.3333333   0.4000000   0.2000000), wk =   0.0266667
        k(   26) = (   0.3333333   0.4000000   0.4000000), wk =   0.0266667
        k(   27) = (   0.3333333   0.4000000  -0.4000000), wk =   0.0266667
        k(   28) = (   0.3333333   0.4000000  -0.2000000), wk =   0.0266667
        k(   29) = (   0.3333333  -0.4000000   0.0000000), wk =   0.0266667
        k(   30) = (   0.3333333  -0.4000000   0.2000000), wk =   0.0266667
        k(   31) = (   0.3333333  -0.4000000   0.4000000), wk =   0.0266667
        k(   32) = (   0.3333333  -0.4000000  -0.4000000), wk =   0.0266667
        k(   33) = (   0.3333333  -0.4000000  -0.2000000), wk =   0.0266667
        k(   34) = (   0.3333333  -0.2000000  -0.0000000), wk =   0.0266667
        k(   35) = (   0.3333333  -0.2000000   0.2000000), wk =   0.0266667
        k(   36) = (   0.3333333  -0.2000000   0.4000000), wk =   0.0266667
        k(   37) = (   0.3333333  -0.2000000  -0.4000000), wk =   0.0266667
        k(   38) = (   0.3333333  -0.2000000  -0.2000000), wk =   0.0266667

     Dense  grid:    17651 G-vectors     FFT dimensions: (  60,  30,  30)

     Smooth grid:    12697 G-vectors     FFT dimensions: (  54,  25,  25)

     Dynamical RAM for                 wfc:       0.10 MB

     Dynamical RAM for     wfc (w. buffer):       7.75 MB

     Dynamical RAM for           str. fact:       0.13 MB

     Dynamical RAM for           local pot:       0.00 MB

     Dynamical RAM for          nlocal pot:       0.29 MB

     Dynamical RAM for                qrad:       5.90 MB

     Dynamical RAM for          rho,v,vnew:       0.68 MB

     Dynamical RAM for               rhoin:       0.23 MB

     Dynamical RAM for            rho*nmix:       1.44 MB

     Dynamical RAM for           G-vectors:       0.18 MB

     Dynamical RAM for          h,s,v(r/c):       0.11 MB

     Dynamical RAM for          <psi|beta>:       0.03 MB

     Dynamical RAM for                 psi:       0.20 MB

     Dynamical RAM for                hpsi:       0.20 MB

     Dynamical RAM for                spsi:       0.20 MB

     Dynamical RAM for      wfcinit/wfcrot:       0.24 MB

     Dynamical RAM for           addusdens:       8.48 MB

     Dynamical RAM for          addusforce:       8.59 MB

     Dynamical RAM for         addusstress:       9.09 MB

     Estimated static dynamical RAM per process >      15.77 MB

     Estimated max dynamical RAM per process >      26.30 MB

     Estimated total dynamical RAM >     157.77 MB

     Check: negative core charge=   -0.000238
     Generating pointlists ...
     new r_m :   0.1228 (alat units)  1.8154 (a.u.) for type    1
     new r_m :   0.1228 (alat units)  1.8154 (a.u.) for type    2
     new r_m :   0.1228 (alat units)  1.8154 (a.u.) for type    3

     Initial potential from superposition of free atoms

     starting charge      41.9989, renormalised to      42.0000
     Starting wfcs are   28 randomized atomic wfcs
     Checking if some PAW data can be deallocated... 
       PAW data deallocated on    4 nodes for type:  1
       PAW data deallocated on    4 nodes for type:  2
       PAW data deallocated on    4 nodes for type:  3

     total cpu time spent up to now is        2.2 secs

     Self-consistent Calculation

     iteration #  1     ecut=    30.00 Ry     beta= 0.70
     Davidson diagonalization with overlap

---- Real-time Memory Report at c_bands before calling an iterative solver
            66 MiB given to the printing process from OS
             0 MiB allocation reported by mallinfo(arena+hblkhd)
          1738 MiB available memory on the node where the printing process lives
------------------
     ethr =  1.00E-02,  avg # of iterations =  2.0

     Threshold (ethr) on eigenvalues was too large:
     Diagonalizing with lowered threshold

     Davidson diagonalization with overlap

---- Real-time Memory Report at c_bands before calling an iterative solver
            66 MiB given to the printing process from OS
             0 MiB allocation reported by mallinfo(arena+hblkhd)
          1704 MiB available memory on the node where the printing process lives
------------------
     ethr =  3.70E-04,  avg # of iterations =  3.9

     total cpu time spent up to now is        7.4 secs

     total energy              =    -705.51261222 Ry
     estimated scf accuracy    <       0.13579258 Ry

     total magnetization       =     0.00 Bohr mag/cell
     absolute magnetization    =     8.12 Bohr mag/cell

     iteration #  2     ecut=    30.00 Ry     beta= 0.70
     Davidson diagonalization with overlap

---- Real-time Memory Report at c_bands before calling an iterative solver
            76 MiB given to the printing process from OS
             0 MiB allocation reported by mallinfo(arena+hblkhd)
          1743 MiB available memory on the node where the printing process lives
------------------
     ethr =  3.23E-04,  avg # of iterations =  2.2

     total cpu time spent up to now is       10.3 secs

     total energy              =    -705.54867388 Ry
     estimated scf accuracy    <       0.01480318 Ry

     total magnetization       =    -0.00 Bohr mag/cell
     absolute magnetization    =     8.55 Bohr mag/cell

     iteration #  3     ecut=    30.00 Ry     beta= 0.70
     Davidson diagonalization with overlap

---- Real-time Memory Report at c_bands before calling an iterative solver
            76 MiB given to the printing process from OS
             0 MiB allocation reported by mallinfo(arena+hblkhd)
          1728 MiB available memory on the node where the printing process lives
------------------
     ethr =  3.52E-05,  avg # of iterations =  3.9

     total cpu time spent up to now is       13.6 secs

     total energy              =    -705.55281866 Ry
     estimated scf accuracy    <       0.00961873 Ry

     total magnetization       =     0.00 Bohr mag/cell
     absolute magnetization    =     8.78 Bohr mag/cell

     iteration #  4     ecut=    30.00 Ry     beta= 0.70
     Davidson diagonalization with overlap

---- Real-time Memory Report at c_bands before calling an iterative solver
            76 MiB given to the printing process from OS
             0 MiB allocation reported by mallinfo(arena+hblkhd)
          1762 MiB available memory on the node where the printing process lives
------------------
     ethr =  2.29E-05,  avg # of iterations =  5.6

     total cpu time spent up to now is       17.4 secs

     total energy              =    -705.55121562 Ry
     estimated scf accuracy    <       0.05653431 Ry

     total magnetization       =    -0.00 Bohr mag/cell
     absolute magnetization    =     8.83 Bohr mag/cell

     iteration #  5     ecut=    30.00 Ry     beta= 0.70
     Davidson diagonalization with overlap

---- Real-time Memory Report at c_bands before calling an iterative solver
            76 MiB given to the printing process from OS
             0 MiB allocation reported by mallinfo(arena+hblkhd)
          1686 MiB available memory on the node where the printing process lives
------------------
     ethr =  2.29E-05,  avg # of iterations =  4.4

     total cpu time spent up to now is       20.8 secs

     total energy              =    -705.55753637 Ry
     estimated scf accuracy    <       0.00185138 Ry

     total magnetization       =     0.00 Bohr mag/cell
     absolute magnetization    =     8.94 Bohr mag/cell

     iteration #  6     ecut=    30.00 Ry     beta= 0.70
     Davidson diagonalization with overlap

---- Real-time Memory Report at c_bands before calling an iterative solver
            76 MiB given to the printing process from OS
             0 MiB allocation reported by mallinfo(arena+hblkhd)
          1718 MiB available memory on the node where the printing process lives
------------------
     ethr =  4.41E-06,  avg # of iterations =  4.5

     total cpu time spent up to now is       24.4 secs

     total energy              =    -705.55808415 Ry
     estimated scf accuracy    <       0.00056668 Ry

     total magnetization       =     0.00 Bohr mag/cell
     absolute magnetization    =     8.94 Bohr mag/cell

     iteration #  7     ecut=    30.00 Ry     beta= 0.70
     Davidson diagonalization with overlap

---- Real-time Memory Report at c_bands before calling an iterative solver
            77 MiB given to the printing process from OS
             0 MiB allocation reported by mallinfo(arena+hblkhd)
          1727 MiB available memory on the node where the printing process lives
------------------
     ethr =  1.35E-06,  avg # of iterations =  2.6

     total cpu time spent up to now is       27.1 secs

     total energy              =    -705.55816596 Ry
     estimated scf accuracy    <       0.00005152 Ry

     total magnetization       =     0.00 Bohr mag/cell
     absolute magnetization    =     8.96 Bohr mag/cell

     iteration #  8     ecut=    30.00 Ry     beta= 0.70
     Davidson diagonalization with overlap

---- Real-time Memory Report at c_bands before calling an iterative solver
            77 MiB given to the printing process from OS
             0 MiB allocation reported by mallinfo(arena+hblkhd)
          1710 MiB available memory on the node where the printing process lives
------------------
     ethr =  1.23E-07,  avg # of iterations =  4.1

     total cpu time spent up to now is       30.2 secs

     total energy              =    -705.55817829 Ry
     estimated scf accuracy    <       0.00001153 Ry

     total magnetization       =     0.00 Bohr mag/cell
     absolute magnetization    =     8.97 Bohr mag/cell

     iteration #  9     ecut=    30.00 Ry     beta= 0.70
     Davidson diagonalization with overlap

---- Real-time Memory Report at c_bands before calling an iterative solver
            77 MiB given to the printing process from OS
             0 MiB allocation reported by mallinfo(arena+hblkhd)
          1708 MiB available memory on the node where the printing process lives
------------------
     ethr =  2.74E-08,  avg # of iterations =  3.0

     total cpu time spent up to now is       33.0 secs

     total energy              =    -705.55818022 Ry
     estimated scf accuracy    <       0.00000126 Ry

     total magnetization       =    -0.00 Bohr mag/cell
     absolute magnetization    =     8.97 Bohr mag/cell

     iteration # 10     ecut=    30.00 Ry     beta= 0.70
     Davidson diagonalization with overlap

---- Real-time Memory Report at c_bands before calling an iterative solver
            77 MiB given to the printing process from OS
             0 MiB allocation reported by mallinfo(arena+hblkhd)
          1743 MiB available memory on the node where the printing process lives
------------------
     ethr =  3.00E-09,  avg # of iterations =  4.5

     total cpu time spent up to now is       36.5 secs

     total energy              =    -705.55818066 Ry
     estimated scf accuracy    <       0.00000033 Ry

     total magnetization       =    -0.00 Bohr mag/cell
     absolute magnetization    =     8.97 Bohr mag/cell

     iteration # 11     ecut=    30.00 Ry     beta= 0.70
     Davidson diagonalization with overlap

---- Real-time Memory Report at c_bands before calling an iterative solver
            77 MiB given to the printing process from OS
             0 MiB allocation reported by mallinfo(arena+hblkhd)
          1740 MiB available memory on the node where the printing process lives
------------------
     ethr =  7.87E-10,  avg # of iterations =  2.6

     total cpu time spent up to now is       39.3 secs

     total energy              =    -705.55818070 Ry
     estimated scf accuracy    <       0.00000002 Ry

     total magnetization       =    -0.00 Bohr mag/cell
     absolute magnetization    =     8.97 Bohr mag/cell

     iteration # 12     ecut=    30.00 Ry     beta= 0.70
     Davidson diagonalization with overlap

---- Real-time Memory Report at c_bands before calling an iterative solver
            77 MiB given to the printing process from OS
             0 MiB allocation reported by mallinfo(arena+hblkhd)
          1726 MiB available memory on the node where the printing process lives
------------------
     ethr =  5.59E-11,  avg # of iterations =  4.4

     total cpu time spent up to now is       42.5 secs

     total energy              =    -705.55818071 Ry
     estimated scf accuracy    <          1.1E-09 Ry

     total magnetization       =     0.00 Bohr mag/cell
     absolute magnetization    =     8.97 Bohr mag/cell

     iteration # 13     ecut=    30.00 Ry     beta= 0.70
     Davidson diagonalization with overlap

---- Real-time Memory Report at c_bands before calling an iterative solver
            77 MiB given to the printing process from OS
             0 MiB allocation reported by mallinfo(arena+hblkhd)
          1723 MiB available memory on the node where the printing process lives
------------------
     ethr =  2.60E-12,  avg # of iterations =  4.3

     total cpu time spent up to now is       45.9 secs

     total energy              =    -705.55818071 Ry
     estimated scf accuracy    <          4.3E-10 Ry

     total magnetization       =     0.00 Bohr mag/cell
     absolute magnetization    =     8.97 Bohr mag/cell

     iteration # 14     ecut=    30.00 Ry     beta= 0.70
     Davidson diagonalization with overlap

---- Real-time Memory Report at c_bands before calling an iterative solver
            77 MiB given to the printing process from OS
             0 MiB allocation reported by mallinfo(arena+hblkhd)
          1721 MiB available memory on the node where the printing process lives
------------------
     ethr =  1.03E-12,  avg # of iterations =  2.1

     Magnetic moment per site  (integrated on atomic sphere of radius R)
     atom   1 (R=0.123)  charge= 12.7879  magn=  3.8611
     atom   2 (R=0.123)  charge= 12.7879  magn= -3.8611
     atom   3 (R=0.123)  charge=  3.9416  magn= -0.0527
     atom   4 (R=0.123)  charge=  3.9416  magn=  0.0527

     total cpu time spent up to now is       48.6 secs

     End of self-consistent calculation

 ------ SPIN UP ------------


          k = 0.0000 0.0000 0.0000 (  1617 PWs)   bands (ev):

   -74.4032 -70.0031 -43.1483 -43.1483 -43.0825 -38.8073 -38.7798 -38.7798
    -6.1270  -5.4056   2.1901   3.1498   3.1499   3.3109   4.1582   4.1583
     5.1689   5.1690   6.4751   7.3636   7.3637   8.7835   8.7836   9.3940
    10.2447

     occupation numbers 
     1.0000   1.0000   1.0000   1.0000   1.0000   1.0000   1.0000   1.0000
     1.0000   1.0000   1.0000   1.0000   1.0000   1.0000   1.0000   1.0000
     1.0000   1.0000   1.0000   1.0000   1.0000   0.0000   0.0000   0.0000
     0.0000

          k = 0.0000 0.0000 0.4899 (  1600 PWs)   bands (ev):

   -74.4030 -70.0030 -43.1491 -43.1484 -43.0821 -38.8070 -38.7811 -38.7800
    -5.9071  -5.3376   2.4236   2.8788   3.2519   3.3596   3.7843   4.1625
     5.0299   5.1518   6.1396   6.6782   7.0448   8.6318   8.7640   9.4584
    10.0280

     occupation numbers 
     1.0000   1.0000   1.0000   1.0000   1.0000   1.0000   1.0000   1.0000
     1.0000   1.0000   1.0000   1.0000   1.0000   1.0000   1.0000   1.0000
     1.0000   1.0000   1.0000   1.0000   1.0000   0.0000   0.0000   0.0000
     0.0000

          k = 0.0000 0.0000 0.9798 (  1578 PWs)   bands (ev):

   -74.4028 -70.0027 -43.1502 -43.1486 -43.0820 -38.8067 -38.7829 -38.7804
    -5.5146  -5.2120   2.1460   2.4698   3.3950   3.4771   3.8540   4.2183
     5.0009   5.1376   5.5977   6.2045   6.5943   8.3873   8.9154   8.9690
     9.4108

     occupation numbers 
     1.0000   1.0000   1.0000   1.0000   1.0000   1.0000   1.0000   1.0000
     1.0000   1.0000   1.0000   1.0000   1.0000   1.0000   1.0000   1.0000
     1.0000   1.0000   1.0000   1.0000   1.0000   0.0000   0.0000   0.0000
     0.0000

          k = 0.0000 0.4619-0.1633 (  1600 PWs)   bands (ev):

   -74.4030 -70.0030 -43.1491 -43.1484 -43.0821 -38.8070 -38.7810 -38.7800
    -5.9071  -5.3376   2.4237   2.8787   3.2520   3.3596   3.7843   4.1626
     5.0299   5.1519   6.1396   6.6782   7.0447   8.6317   8.7640   9.4584
    10.0279

     occupation numbers 
     1.0000   1.0000   1.0000   1.0000   1.0000   1.0000   1.0000   1.0000
     1.0000   1.0000   1.0000   1.0000   1.0000   1.0000   1.0000   1.0000
     1.0000   1.0000   1.0000   1.0000   1.0000   0.0000   0.0000   0.0000
     0.0000

          k = 0.0000 0.4619 0.3266 (  1598 PWs)   bands (ev):

   -74.4030 -70.0029 -43.1490 -43.1484 -43.0822 -38.8070 -38.7809 -38.7800
    -5.8362  -5.4218   2.5581   2.7746   3.2555   3.3476   3.7938   4.1774
     5.0191   5.1074   6.2177   6.6896   7.0353   8.5485   8.8781   9.4998
     9.9039

     occupation numbers 
     1.0000   1.0000   1.0000   1.0000   1.0000   1.0000   1.0000   1.0000
     1.0000   1.0000   1.0000   1.0000   1.0000   1.0000   1.0000   1.0000
     1.0000   1.0000   1.0000   1.0000   1.0000   0.0000   0.0000   0.0000
     0.0000

          k = 0.0000 0.4619 0.8165 (  1588 PWs)   bands (ev):

   -74.4029 -70.0028 -43.1498 -43.1488 -43.0821 -38.8068 -38.7823 -38.7807
    -5.5070  -5.3350   2.3787   2.6211   3.2659   3.4706   3.7799   4.0440
     4.9008   5.1846   5.8123   6.2750   6.5398   8.3762   8.7582   9.0889
     9.4411

     occupation numbers 
     1.0000   1.0000   1.0000   1.0000   1.0000   1.0000   1.0000   1.0000
     1.0000   1.0000   1.0000   1.0000   1.0000   1.0000   1.0000   1.0000
     1.0000   1.0000   1.0000   1.0000   1.0000   0.0000   0.0000   0.0000
     0.0000

          k = 0.0000 0.4619-1.1431 (  1573 PWs)   bands (ev):

   -74.4027 -70.0027 -43.1503 -43.1491 -43.0819 -38.8066 -38.7830 -38.7812
    -5.3615  -5.2015   2.3762   2.6480   3.1500   3.4952   3.6582   3.9826
     4.8477   5.2331   5.6183   5.8496   6.2536   8.3397   8.6895   9.0925
     9.2244

     occupation numbers 
     1.0000   1.0000   1.0000   1.0000   1.0000   1.0000   1.0000   1.0000
     1.0000   1.0000   1.0000   1.0000   1.0000   1.0000   1.0000   1.0000
     1.0000   1.0000   1.0000   1.0000   1.0000   0.0000   0.0000   0.0000
     0.0000

          k = 0.0000 0.4619-0.6532 (  1585 PWs)   bands (ev):

   -74.4028 -70.0028 -43.1499 -43.1488 -43.0821 -38.8068 -38.7823 -38.7807
    -5.6251  -5.2084   2.6070   2.8082   3.1639   3.3438   3.5077   4.0988
     4.9986   5.1507   5.5668   6.0842   6.5929   8.5178   8.8809   9.1124
     9.2856

     occupation numbers 
     1.0000   1.0000   1.0000   1.0000   1.0000   1.0000   1.0000   1.0000
     1.0000   1.0000   1.0000   1.0000   1.0000   1.0000   1.0000   1.0000
     1.0000   1.0000   1.0000   1.0000   1.0000   0.0000   0.0000   0.0000
     0.0000

          k = 0.0000 0.9238-0.3266 (  1578 PWs)   bands (ev):

   -74.4028 -70.0027 -43.1502 -43.1487 -43.0820 -38.8067 -38.7829 -38.7805
    -5.5146  -5.2120   2.1460   2.4697   3.3952   3.4772   3.8539   4.2185
     5.0010   5.1376   5.5977   6.2045   6.5941   8.3872   8.9155   8.9689
     9.4107

     occupation numbers 
     1.0000   1.0000   1.0000   1.0000   1.0000   1.0000   1.0000   1.0000
     1.0000   1.0000   1.0000   1.0000   1.0000   1.0000   1.0000   1.0000
     1.0000   1.0000   1.0000   1.0000   1.0000   0.0000   0.0000   0.0000
     0.0000

          k = 0.0000 0.9238 0.1633 (  1588 PWs)   bands (ev):

   -74.4029 -70.0028 -43.1498 -43.1489 -43.0821 -38.8068 -38.7822 -38.7807
    -5.5070  -5.3350   2.3787   2.6210   3.2660   3.4706   3.7799   4.0440
     4.9008   5.1846   5.8123   6.2750   6.5397   8.3761   8.7581   9.0889
     9.4410

     occupation numbers 
     1.0000   1.0000   1.0000   1.0000   1.0000   1.0000   1.0000   1.0000
     1.0000   1.0000   1.0000   1.0000   1.0000   1.0000   1.0000   1.0000
     1.0000   1.0000   1.0000   1.0000   1.0000   0.0000   0.0000   0.0000
     0.0000

          k = 0.0000 0.9238 0.6532 (  1582 PWs)   bands (ev):

   -74.4028 -70.0028 -43.1502 -43.1487 -43.0820 -38.8068 -38.7829 -38.7805
    -5.4545  -5.2770   2.1497   2.4643   3.4009   3.4385   3.8672   4.2171
     5.0322   5.1121   5.6328   6.2175   6.6012   8.4414   8.8763   8.8936
     9.3293

     occupation numbers 
     1.0000   1.0000   1.0000   1.0000   1.0000   1.0000   1.0000   1.0000
     1.0000   1.0000   1.0000   1.0000   1.0000   1.0000   1.0000   1.0000
     1.0000   1.0000   1.0000   1.0000   1.0000   0.0000   0.0000   0.0000
     0.0000

          k = 0.0000 0.9238-1.3064 (  1588 PWs)   bands (ev):

   -74.4028 -70.0028 -43.1503 -43.1493 -43.0820 -38.8067 -38.7830 -38.7813
    -5.3713  -5.1900   2.3055   2.5557   3.2102   3.5679   3.7289   3.9084
     4.8255   5.2029   5.6423   5.8817   6.2909   8.3042   8.6018   9.0881
     9.2954

     occupation numbers 
     1.0000   1.0000   1.0000   1.0000   1.0000   1.0000   1.0000   1.0000
     1.0000   1.0000   1.0000   1.0000   1.0000   1.0000   1.0000   1.0000
     1.0000   1.0000   1.0000   1.0000   1.0000   0.0000   0.0000   0.0000
     0.0000

          k = 0.0000 0.9238-0.8165 (  1573 PWs)   bands (ev):

   -74.4027 -70.0027 -43.1502 -43.1492 -43.0819 -38.8066 -38.7829 -38.7812
    -5.3615  -5.2015   2.3761   2.6479   3.1501   3.4953   3.6582   3.9827
     4.8476   5.2332   5.6183   5.8496   6.2535   8.3396   8.6896   9.0925
     9.2244

     occupation numbers 
     1.0000   1.0000   1.0000   1.0000   1.0000   1.0000   1.0000   1.0000
     1.0000   1.0000   1.0000   1.0000   1.0000   1.0000   1.0000   1.0000
     1.0000   1.0000   1.0000   1.0000   1.0000   0.0000   0.0000   0.0000
     0.0000

          k = 0.3333-0.1925-0.1361 (  1605 PWs)   bands (ev):

   -74.4031 -70.0030 -43.1482 -43.1481 -43.0823 -38.8072 -38.7797 -38.7797
    -5.9723  -5.5930   2.4341   3.1030   3.1642   3.1643   4.2009   4.2010
     5.0975   5.0977   6.4977   7.3407   7.3408   8.8910   8.8911   9.4153
    10.3007

     occupation numbers 
     1.0000   1.0000   1.0000   1.0000   1.0000   1.0000   1.0000   1.0000
     1.0000   1.0000   1.0000   1.0000   1.0000   1.0000   1.0000   1.0000
     1.0000   1.0000   1.0000   1.0000   1.0000   0.0000   0.0000   0.0000
     0.0000

          k = 0.3333-0.1925 0.3538 (  1594 PWs)   bands (ev):

   -74.4030 -70.0029 -43.1490 -43.1484 -43.0822 -38.8070 -38.7810 -38.7800
    -5.8743  -5.3774   2.5388   2.8106   3.2571   3.3591   3.7391   4.1728
     5.0458   5.1323   6.1584   6.7078   7.0383   8.5639   8.8824   9.5495
     9.9268

     occupation numbers 
     1.0000   1.0000   1.0000   1.0000   1.0000   1.0000   1.0000   1.0000
     1.0000   1.0000   1.0000   1.0000   1.0000   1.0000   1.0000   1.0000
     1.0000   1.0000   1.0000   1.0000   1.0000   0.0000   0.0000   0.0000
     0.0000

          k = 0.3333-0.1925 0.8437 (  1583 PWs)   bands (ev):

   -74.4028 -70.0028 -43.1503 -43.1487 -43.0820 -38.8068 -38.7830 -38.7805
    -5.5149  -5.2178   2.3717   2.7983   3.2241   3.3792   3.4760   4.2149
     5.0507   5.1465   5.4668   6.0153   6.5605   8.5189   8.9882   9.0347
     9.3042

     occupation numbers 
     1.0000   1.0000   1.0000   1.0000   1.0000   1.0000   1.0000   1.0000
     1.0000   1.0000   1.0000   1.0000   1.0000   1.0000   1.0000   1.0000
     1.0000   1.0000   1.0000   1.0000   1.0000   0.0000   0.0000   0.0000
     0.0000

          k = 0.3333-0.1925-1.1159 (  1581 PWs)   bands (ev):

   -74.4028 -70.0027 -43.1502 -43.1486 -43.0820 -38.8068 -38.7829 -38.7805
    -5.4255  -5.3100   2.2370   2.5714   3.3284   3.3956   3.7493   4.2176
     5.0754   5.1344   5.6034   6.0878   6.5903   8.5458   8.9105   8.9377
     9.2312

     occupation numbers 
     1.0000   1.0000   1.0000   1.0000   1.0000   1.0000   1.0000   1.0000
     1.0000   1.0000   1.0000   1.0000   1.0000   1.0000   1.0000   1.0000
     1.0000   1.0000   1.0000   1.0000   1.0000   0.0000   0.0000   0.0000
     0.0000

          k = 0.3333-0.1925-0.6260 (  1602 PWs)   bands (ev):

   -74.4030 -70.0030 -43.1491 -43.1483 -43.0822 -38.8070 -38.7811 -38.7800
    -5.7117  -5.5579   2.5230   2.7162   3.2570   3.3518   3.9619   4.1920
     4.9410   5.0862   6.4699   6.5550   7.0589   8.5523   8.7917   9.2415
     9.8165

     occupation numbers 
     1.0000   1.0000   1.0000   1.0000   1.0000   1.0000   1.0000   1.0000
     1.0000   1.0000   1.0000   1.0000   1.0000   1.0000   1.0000   1.0000
     1.0000   1.0000   1.0000   1.0000   1.0000   0.0000   0.0000   0.0000
     0.0000

          k = 0.3333 0.2694-0.2994 (  1594 PWs)   bands (ev):

   -74.4030 -70.0029 -43.1490 -43.1484 -43.0822 -38.8070 -38.7809 -38.7800
    -5.8743  -5.3774   2.5388   2.8106   3.2572   3.3591   3.7390   4.1729
     5.0458   5.1324   6.1583   6.7079   7.0382   8.5638   8.8824   9.5496
     9.9269

     occupation numbers 
     1.0000   1.0000   1.0000   1.0000   1.0000   1.0000   1.0000   1.0000
     1.0000   1.0000   1.0000   1.0000   1.0000   1.0000   1.0000   1.0000
     1.0000   1.0000   1.0000   1.0000   1.0000   0.0000   0.0000   0.0000
     0.0000

          k = 0.3333 0.2694 0.1905 (  1598 PWs)   bands (ev):

   -74.4030 -70.0029 -43.1490 -43.1483 -43.0822 -38.8070 -38.7810 -38.7800
    -5.9235  -5.3179   2.4385   2.8900   3.2558   3.3629   3.7318   4.1627
     5.0464   5.1655   6.0918   6.6925   7.0510   8.6194   8.7939   9.4801
    10.0856

     occupation numbers 
     1.0000   1.0000   1.0000   1.0000   1.0000   1.0000   1.0000   1.0000
     1.0000   1.0000   1.0000   1.0000   1.0000   1.0000   1.0000   1.0000
     1.0000   1.0000   1.0000   1.0000   1.0000   0.0000   0.0000   0.0000
     0.0000

          k = 0.3333 0.2694 0.6804 (  1583 PWs)   bands (ev):

   -74.4028 -70.0028 -43.1498 -43.1488 -43.0820 -38.8068 -38.7823 -38.7807
    -5.6214  -5.2126   2.5908   2.8010   3.1659   3.3659   3.5126   4.0989
     4.9957   5.1502   5.5837   6.0961   6.5970   8.5107   8.8693   9.1211
     9.3004

     occupation numbers 
     1.0000   1.0000   1.0000   1.0000   1.0000   1.0000   1.0000   1.0000
     1.0000   1.0000   1.0000   1.0000   1.0000   1.0000   1.0000   1.0000
     1.0000   1.0000   1.0000   1.0000   1.0000   0.0000   0.0000   0.0000
     0.0000

          k = 0.3333 0.2694-1.2792 (  1576 PWs)   bands (ev):

   -74.4027 -70.0027 -43.1503 -43.1492 -43.0819 -38.8066 -38.7830 -38.7812
    -5.3669  -5.1952   2.3398   2.5986   3.1848   3.5416   3.6847   3.9505
     4.8398   5.2243   5.6347   5.8759   6.2754   8.3334   8.6414   9.1075
     9.2478

     occupation numbers 
     1.0000   1.0000   1.0000   1.0000   1.0000   1.0000   1.0000   1.0000
     1.0000   1.0000   1.0000   1.0000   1.0000   1.0000   1.0000   1.0000
     1.0000   1.0000   1.0000   1.0000   1.0000   0.0000   0.0000   0.0000
     0.0000

          k = 0.3333 0.2694-0.7893 (  1589 PWs)   bands (ev):

   -74.4029 -70.0028 -43.1498 -43.1488 -43.0821 -38.8068 -38.7823 -38.7807
    -5.5368  -5.3039   2.4081   2.6493   3.2466   3.4690   3.7137   4.0667
     4.9164   5.1760   5.7678   6.2279   6.5618   8.3864   8.7789   9.1071
     9.4273

     occupation numbers 
     1.0000   1.0000   1.0000   1.0000   1.0000   1.0000   1.0000   1.0000
     1.0000   1.0000   1.0000   1.0000   1.0000   1.0000   1.0000   1.0000
     1.0000   1.0000   1.0000   1.0000   1.0000   0.0000   0.0000   0.0000
     0.0000

          k = 0.3333 0.7313-0.4627 (  1583 PWs)   bands (ev):

   -74.4028 -70.0028 -43.1502 -43.1487 -43.0820 -38.8068 -38.7829 -38.7805
    -5.5149  -5.2178   2.3717   2.7983   3.2240   3.3793   3.4760   4.2150
     5.0507   5.1466   5.4667   6.0152   6.5603   8.5187   8.9882   9.0347
     9.3042

     occupation numbers 
     1.0000   1.0000   1.0000   1.0000   1.0000   1.0000   1.0000   1.0000
     1.0000   1.0000   1.0000   1.0000   1.0000   1.0000   1.0000   1.0000
     1.0000   1.0000   1.0000   1.0000   1.0000   0.0000   0.0000   0.0000
     0.0000

          k = 0.3333 0.7313 0.0272 (  1583 PWs)   bands (ev):

   -74.4028 -70.0028 -43.1498 -43.1488 -43.0820 -38.8068 -38.7822 -38.7807
    -5.6214  -5.2126   2.5908   2.8011   3.1659   3.3660   3.5126   4.0990
     4.9956   5.1503   5.5838   6.0960   6.5970   8.5106   8.8693   9.1210
     9.3003

     occupation numbers 
     1.0000   1.0000   1.0000   1.0000   1.0000   1.0000   1.0000   1.0000
     1.0000   1.0000   1.0000   1.0000   1.0000   1.0000   1.0000   1.0000
     1.0000   1.0000   1.0000   1.0000   1.0000   0.0000   0.0000   0.0000
     0.0000

          k = 0.3333 0.7313 0.5171 (  1587 PWs)   bands (ev):

   -74.4028 -70.0028 -43.1502 -43.1487 -43.0821 -38.8069 -38.7829 -38.7805
    -5.4764  -5.2599   2.3773   2.8306   3.1143   3.3827   3.5325   4.2147
     5.0777   5.1397   5.4857   5.9904   6.5668   8.5452   8.9807   9.0333
     9.2118

     occupation numbers 
     1.0000   1.0000   1.0000   1.0000   1.0000   1.0000   1.0000   1.0000
     1.0000   1.0000   1.0000   1.0000   1.0000   1.0000   1.0000   1.0000
     1.0000   1.0000   1.0000   1.0000   1.0000   0.0000   0.0000   0.0000
     0.0000

          k = 0.3333 0.7313-1.4425 (  1573 PWs)   bands (ev):

   -74.4027 -70.0027 -43.1502 -43.1491 -43.0820 -38.8067 -38.7829 -38.7812
    -5.3483  -5.2174   2.4756   2.7877   3.0590   3.3364   3.6204   4.0363
     4.8558   5.2447   5.5570   5.8119   6.2186   8.3159   8.8025   9.0353
     9.1761

     occupation numbers 
     1.0000   1.0000   1.0000   1.0000   1.0000   1.0000   1.0000   1.0000
     1.0000   1.0000   1.0000   1.0000   1.0000   1.0000   1.0000   1.0000
     1.0000   1.0000   1.0000   1.0000   1.0000   0.0000   0.0000   0.0000
     0.0000

          k = 0.3333 0.7313-0.9526 (  1579 PWs)   bands (ev):

   -74.4028 -70.0027 -43.1503 -43.1492 -43.0820 -38.8067 -38.7829 -38.7813
    -5.3387  -5.2286   2.5538   2.9173   2.9978   3.1793   3.6023   4.0578
     4.8483   5.2456   5.5033   5.8059   6.1947   8.2867   8.8347   9.0372
     9.1380

     occupation numbers 
     1.0000   1.0000   1.0000   1.0000   1.0000   1.0000   1.0000   1.0000
     1.0000   1.0000   1.0000   1.0000   1.0000   1.0000   1.0000   1.0000
     1.0000   1.0000   1.0000   1.0000   1.0000   0.0000   0.0000   0.0000
     0.0000

          k = 0.3333-1.1162 0.1905 (  1581 PWs)   bands (ev):

   -74.4028 -70.0027 -43.1502 -43.1487 -43.0820 -38.8068 -38.7829 -38.7805
    -5.4255  -5.3099   2.2370   2.5713   3.3285   3.3958   3.7493   4.2178
     5.0755   5.1344   5.6034   6.0877   6.5901   8.5457   8.9105   8.9377
     9.2311

     occupation numbers 
     1.0000   1.0000   1.0000   1.0000   1.0000   1.0000   1.0000   1.0000
     1.0000   1.0000   1.0000   1.0000   1.0000   1.0000   1.0000   1.0000
     1.0000   1.0000   1.0000   1.0000   1.0000   0.0000   0.0000   0.0000
     0.0000

          k = 0.3333-1.1162 0.6804 (  1576 PWs)   bands (ev):

   -74.4027 -70.0027 -43.1502 -43.1492 -43.0819 -38.8066 -38.7829 -38.7813
    -5.3668  -5.1952   2.3398   2.5986   3.1850   3.5417   3.6848   3.9505
     4.8397   5.2244   5.6347   5.8759   6.2753   8.3333   8.6414   9.1075
     9.2477

     occupation numbers 
     1.0000   1.0000   1.0000   1.0000   1.0000   1.0000   1.0000   1.0000
     1.0000   1.0000   1.0000   1.0000   1.0000   1.0000   1.0000   1.0000
     1.0000   1.0000   1.0000   1.0000   1.0000   0.0000   0.0000   0.0000
     0.0000

          k = 0.3333-1.1162 1.1703 (  1573 PWs)   bands (ev):

   -74.4027 -70.0027 -43.1502 -43.1491 -43.0820 -38.8067 -38.7829 -38.7812
    -5.3483  -5.2174   2.4756   2.7877   3.0590   3.3364   3.6203   4.0363
     4.8558   5.2447   5.5570   5.8119   6.2185   8.3159   8.8025   9.0353
     9.1760

     occupation numbers 
     1.0000   1.0000   1.0000   1.0000   1.0000   1.0000   1.0000   1.0000
     1.0000   1.0000   1.0000   1.0000   1.0000   1.0000   1.0000   1.0000
     1.0000   1.0000   1.0000   1.0000   1.0000   0.0000   0.0000   0.0000
     0.0000

          k = 0.3333-1.1162-0.7893 (  1577 PWs)   bands (ev):

   -74.4028 -70.0027 -43.1502 -43.1486 -43.0820 -38.8067 -38.7829 -38.7805
    -5.5326  -5.1943   2.2235   2.5703   3.3929   3.4415   3.6911   4.2168
     5.0084   5.1416   5.5342   6.1144   6.5795   8.4522   8.9377   9.0263
     9.3952

     occupation numbers 
     1.0000   1.0000   1.0000   1.0000   1.0000   1.0000   1.0000   1.0000
     1.0000   1.0000   1.0000   1.0000   1.0000   1.0000   1.0000   1.0000
     1.0000   1.0000   1.0000   1.0000   1.0000   0.0000   0.0000   0.0000
     0.0000

          k = 0.3333-1.1162-0.2994 (  1580 PWs)   bands (ev):

   -74.4028 -70.0028 -43.1498 -43.1488 -43.0820 -38.8067 -38.7822 -38.7807
    -5.5654  -5.2729   2.4517   2.6908   3.2254   3.4689   3.6442   4.0849
     4.9480   5.1728   5.7191   6.1942   6.5813   8.4172   8.8114   9.1347
     9.4139

     occupation numbers 
     1.0000   1.0000   1.0000   1.0000   1.0000   1.0000   1.0000   1.0000
     1.0000   1.0000   1.0000   1.0000   1.0000   1.0000   1.0000   1.0000
     1.0000   1.0000   1.0000   1.0000   1.0000   0.0000   0.0000   0.0000
     0.0000

          k = 0.3333-0.6543 0.0272 (  1602 PWs)   bands (ev):

   -74.4030 -70.0030 -43.1491 -43.1484 -43.0822 -38.8070 -38.7810 -38.7800
    -5.7117  -5.5579   2.5230   2.7161   3.2571   3.3518   3.9619   4.1921
     4.9409   5.0863   6.4699   6.5550   7.0588   8.5522   8.7918   9.2415
     9.8164

     occupation numbers 
     1.0000   1.0000   1.0000   1.0000   1.0000   1.0000   1.0000   1.0000
     1.0000   1.0000   1.0000   1.0000   1.0000   1.0000   1.0000   1.0000
     1.0000   1.0000   1.0000   1.0000   1.0000   0.0000   0.0000   0.0000
     0.0000

          k = 0.3333-0.6543 0.5171 (  1589 PWs)   bands (ev):

   -74.4029 -70.0028 -43.1498 -43.1488 -43.0821 -38.8068 -38.7823 -38.7807
    -5.5368  -5.3039   2.4081   2.6493   3.2466   3.4689   3.7138   4.0666
     4.9164   5.1760   5.7679   6.2280   6.5617   8.3864   8.7789   9.1070
     9.4272

     occupation numbers 
     1.0000   1.0000   1.0000   1.0000   1.0000   1.0000   1.0000   1.0000
     1.0000   1.0000   1.0000   1.0000   1.0000   1.0000   1.0000   1.0000
     1.0000   1.0000   1.0000   1.0000   1.0000   0.0000   0.0000   0.0000
     0.0000

          k = 0.3333-0.6543 1.0070 (  1579 PWs)   bands (ev):

   -74.4028 -70.0027 -43.1503 -43.1492 -43.0820 -38.8067 -38.7830 -38.7812
    -5.3387  -5.2286   2.5539   2.9173   2.9978   3.1792   3.6023   4.0577
     4.8484   5.2455   5.5033   5.8060   6.1948   8.2867   8.8348   9.0372
     9.1380

     occupation numbers 
     1.0000   1.0000   1.0000   1.0000   1.0000   1.0000   1.0000   1.0000
     1.0000   1.0000   1.0000   1.0000   1.0000   1.0000   1.0000   1.0000
     1.0000   1.0000   1.0000   1.0000   1.0000   0.0000   0.0000   0.0000
     0.0000

          k = 0.3333-0.6543-0.9526 (  1580 PWs)   bands (ev):

   -74.4028 -70.0028 -43.1498 -43.1488 -43.0820 -38.8067 -38.7822 -38.7807
    -5.5654  -5.2729   2.4517   2.6908   3.2253   3.4688   3.6443   4.0848
     4.9481   5.1728   5.7191   6.1943   6.5813   8.4172   8.8114   9.1347
     9.4140

     occupation numbers 
     1.0000   1.0000   1.0000   1.0000   1.0000   1.0000   1.0000   1.0000
     1.0000   1.0000   1.0000   1.0000   1.0000   1.0000   1.0000   1.0000
     1.0000   1.0000   1.0000   1.0000   1.0000   0.0000   0.0000   0.0000
     0.0000

          k = 0.3333-0.6543-0.4627 (  1599 PWs)   bands (ev):

   -74.4030 -70.0029 -43.1491 -43.1484 -43.0822 -38.8070 -38.7810 -38.7800
    -5.7524  -5.5142   2.4859   2.7467   3.2583   3.3524   3.9586   4.1915
     4.9532   5.1035   6.4197   6.5892   7.0640   8.5844   8.7773   9.2604
     9.7936

     occupation numbers 
     1.0000   1.0000   1.0000   1.0000   1.0000   1.0000   1.0000   1.0000
     1.0000   1.0000   1.0000   1.0000   1.0000   1.0000   1.0000   1.0000
     1.0000   1.0000   1.0000   1.0000   1.0000   0.0000   0.0000   0.0000
     0.0000

 ------ SPIN DOWN ----------


          k = 0.0000 0.0000 0.0000 (  1617 PWs)   bands (ev):

   -74.4032 -70.0031 -43.1483 -43.1482 -43.0824 -38.8073 -38.7798 -38.7798
    -6.1270  -5.4056   2.1901   3.1499   3.1500   3.3109   4.1582   4.1582
     5.1688   5.1690   6.4751   7.3636   7.3637   8.7835   8.7836   9.3940
    10.2447

     occupation numbers 
     1.0000   1.0000   1.0000   1.0000   1.0000   1.0000   1.0000   1.0000
     1.0000   1.0000   1.0000   1.0000   1.0000   1.0000   1.0000   1.0000
     1.0000   1.0000   1.0000   1.0000   1.0000   0.0000   0.0000   0.0000
     0.0000

          k = 0.0000 0.0000 0.4899 (  1600 PWs)   bands (ev):

   -74.4030 -70.0030 -43.1491 -43.1483 -43.0821 -38.8070 -38.7811 -38.7800
    -5.9071  -5.3376   2.4236   2.8788   3.2520   3.3595   3.7843   4.1625
     5.0299   5.1518   6.1396   6.6782   7.0448   8.6318   8.7640   9.4584
    10.0280

     occupation numbers 
     1.0000   1.0000   1.0000   1.0000   1.0000   1.0000   1.0000   1.0000
     1.0000   1.0000   1.0000   1.0000   1.0000   1.0000   1.0000   1.0000
     1.0000   1.0000   1.0000   1.0000   1.0000   0.0000   0.0000   0.0000
     0.0000

          k = 0.0000 0.0000 0.9798 (  1578 PWs)   bands (ev):

   -74.4028 -70.0027 -43.1502 -43.1486 -43.0820 -38.8067 -38.7830 -38.7804
    -5.5146  -5.2120   2.1460   2.4698   3.3950   3.4771   3.8540   4.2183
     5.0010   5.1376   5.5977   6.2045   6.5943   8.3873   8.9154   8.9690
     9.4108

     occupation numbers 
     1.0000   1.0000   1.0000   1.0000   1.0000   1.0000   1.0000   1.0000
     1.0000   1.0000   1.0000   1.0000   1.0000   1.0000   1.0000   1.0000
     1.0000   1.0000   1.0000   1.0000   1.0000   0.0000   0.0000   0.0000
     0.0000

          k = 0.0000 0.4619-0.1633 (  1600 PWs)   bands (ev):

   -74.4030 -70.0030 -43.1491 -43.1484 -43.0821 -38.8070 -38.7810 -38.7800
    -5.9071  -5.3376   2.4237   2.8787   3.2521   3.3596   3.7843   4.1626
     5.0299   5.1519   6.1396   6.6782   7.0447   8.6317   8.7640   9.4584
    10.0279

     occupation numbers 
     1.0000   1.0000   1.0000   1.0000   1.0000   1.0000   1.0000   1.0000
     1.0000   1.0000   1.0000   1.0000   1.0000   1.0000   1.0000   1.0000
     1.0000   1.0000   1.0000   1.0000   1.0000   0.0000   0.0000   0.0000
     0.0000

          k = 0.0000 0.4619 0.3266 (  1598 PWs)   bands (ev):

   -74.4030 -70.0030 -43.1489 -43.1484 -43.0822 -38.8070 -38.7809 -38.7801
    -5.8362  -5.4218   2.5581   2.7746   3.2556   3.3476   3.7938   4.1774
     5.0191   5.1074   6.2177   6.6896   7.0353   8.5485   8.8781   9.4998
     9.9039

     occupation numbers 
     1.0000   1.0000   1.0000   1.0000   1.0000   1.0000   1.0000   1.0000
     1.0000   1.0000   1.0000   1.0000   1.0000   1.0000   1.0000   1.0000
     1.0000   1.0000   1.0000   1.0000   1.0000   0.0000   0.0000   0.0000
     0.0000

          k = 0.0000 0.4619 0.8165 (  1588 PWs)   bands (ev):

   -74.4029 -70.0028 -43.1498 -43.1488 -43.0821 -38.8068 -38.7823 -38.7807
    -5.5069  -5.3351   2.3788   2.6211   3.2659   3.4706   3.7799   4.0440
     4.9009   5.1846   5.8123   6.2750   6.5398   8.3762   8.7582   9.0889
     9.4411

     occupation numbers 
     1.0000   1.0000   1.0000   1.0000   1.0000   1.0000   1.0000   1.0000
     1.0000   1.0000   1.0000   1.0000   1.0000   1.0000   1.0000   1.0000
     1.0000   1.0000   1.0000   1.0000   1.0000   0.0000   0.0000   0.0000
     0.0000

          k = 0.0000 0.4619-1.1431 (  1573 PWs)   bands (ev):

   -74.4027 -70.0027 -43.1503 -43.1491 -43.0819 -38.8066 -38.7830 -38.7812
    -5.3615  -5.2016   2.3762   2.6480   3.1500   3.4952   3.6582   3.9826
     4.8477   5.2331   5.6183   5.8496   6.2537   8.3397   8.6895   9.0925
     9.2244

     occupation numbers 
     1.0000   1.0000   1.0000   1.0000   1.0000   1.0000   1.0000   1.0000
     1.0000   1.0000   1.0000   1.0000   1.0000   1.0000   1.0000   1.0000
     1.0000   1.0000   1.0000   1.0000   1.0000   0.0000   0.0000   0.0000
     0.0000

          k = 0.0000 0.4619-0.6532 (  1585 PWs)   bands (ev):

   -74.4028 -70.0028 -43.1499 -43.1488 -43.0820 -38.8068 -38.7823 -38.7807
    -5.6251  -5.2084   2.6071   2.8082   3.1639   3.3438   3.5077   4.0988
     4.9986   5.1508   5.5668   6.0842   6.5929   8.5178   8.8809   9.1124
     9.2855

     occupation numbers 
     1.0000   1.0000   1.0000   1.0000   1.0000   1.0000   1.0000   1.0000
     1.0000   1.0000   1.0000   1.0000   1.0000   1.0000   1.0000   1.0000
     1.0000   1.0000   1.0000   1.0000   1.0000   0.0000   0.0000   0.0000
     0.0000

          k = 0.0000 0.9238-0.3266 (  1578 PWs)   bands (ev):

   -74.4028 -70.0027 -43.1502 -43.1486 -43.0820 -38.8067 -38.7829 -38.7805
    -5.5145  -5.2120   2.1460   2.4697   3.3952   3.4771   3.8539   4.2184
     5.0010   5.1376   5.5977   6.2045   6.5941   8.3872   8.9154   8.9689
     9.4107

     occupation numbers 
     1.0000   1.0000   1.0000   1.0000   1.0000   1.0000   1.0000   1.0000
     1.0000   1.0000   1.0000   1.0000   1.0000   1.0000   1.0000   1.0000
     1.0000   1.0000   1.0000   1.0000   1.0000   0.0000   0.0000   0.0000
     0.0000

          k = 0.0000 0.9238 0.1633 (  1588 PWs)   bands (ev):

   -74.4029 -70.0028 -43.1498 -43.1489 -43.0821 -38.8068 -38.7822 -38.7808
    -5.5069  -5.3351   2.3787   2.6210   3.2660   3.4706   3.7799   4.0440
     4.9008   5.1846   5.8123   6.2750   6.5397   8.3761   8.7581   9.0889
     9.4410

     occupation numbers 
     1.0000   1.0000   1.0000   1.0000   1.0000   1.0000   1.0000   1.0000
     1.0000   1.0000   1.0000   1.0000   1.0000   1.0000   1.0000   1.0000
     1.0000   1.0000   1.0000   1.0000   1.0000   0.0000   0.0000   0.0000
     0.0000

          k = 0.0000 0.9238 0.6532 (  1582 PWs)   bands (ev):

   -74.4028 -70.0028 -43.1502 -43.1487 -43.0820 -38.8068 -38.7829 -38.7805
    -5.4544  -5.2771   2.1497   2.4642   3.4010   3.4385   3.8672   4.2170
     5.0322   5.1121   5.6328   6.2175   6.6012   8.4414   8.8763   8.8935
     9.3293

     occupation numbers 
     1.0000   1.0000   1.0000   1.0000   1.0000   1.0000   1.0000   1.0000
     1.0000   1.0000   1.0000   1.0000   1.0000   1.0000   1.0000   1.0000
     1.0000   1.0000   1.0000   1.0000   1.0000   0.0000   0.0000   0.0000
     0.0000

          k = 0.0000 0.9238-1.3064 (  1588 PWs)   bands (ev):

   -74.4028 -70.0028 -43.1503 -43.1493 -43.0820 -38.8067 -38.7830 -38.7814
    -5.3713  -5.1900   2.3056   2.5557   3.2102   3.5679   3.7289   3.9084
     4.8255   5.2029   5.6423   5.8817   6.2909   8.3041   8.6018   9.0881
     9.2955

     occupation numbers 
     1.0000   1.0000   1.0000   1.0000   1.0000   1.0000   1.0000   1.0000
     1.0000   1.0000   1.0000   1.0000   1.0000   1.0000   1.0000   1.0000
     1.0000   1.0000   1.0000   1.0000   1.0000   0.0000   0.0000   0.0000
     0.0000

          k = 0.0000 0.9238-0.8165 (  1573 PWs)   bands (ev):

   -74.4027 -70.0027 -43.1502 -43.1491 -43.0819 -38.8066 -38.7829 -38.7813
    -5.3615  -5.2016   2.3762   2.6479   3.1501   3.4953   3.6582   3.9826
     4.8477   5.2332   5.6183   5.8496   6.2535   8.3395   8.6896   9.0925
     9.2244

     occupation numbers 
     1.0000   1.0000   1.0000   1.0000   1.0000   1.0000   1.0000   1.0000
     1.0000   1.0000   1.0000   1.0000   1.0000   1.0000   1.0000   1.0000
     1.0000   1.0000   1.0000   1.0000   1.0000   0.0000   0.0000   0.0000
     0.0000

          k = 0.3333-0.1925-0.1361 (  1605 PWs)   bands (ev):

   -74.4031 -70.0031 -43.1482 -43.1481 -43.0823 -38.8072 -38.7797 -38.7797
    -5.9723  -5.5930   2.4341   3.1030   3.1643   3.1643   4.2008   4.2009
     5.0975   5.0977   6.4977   7.3407   7.3408   8.8910   8.8911   9.4154
    10.3007

     occupation numbers 
     1.0000   1.0000   1.0000   1.0000   1.0000   1.0000   1.0000   1.0000
     1.0000   1.0000   1.0000   1.0000   1.0000   1.0000   1.0000   1.0000
     1.0000   1.0000   1.0000   1.0000   1.0000   0.0000   0.0000   0.0000
     0.0000

          k = 0.3333-0.1925 0.3538 (  1594 PWs)   bands (ev):

   -74.4030 -70.0029 -43.1490 -43.1483 -43.0821 -38.8070 -38.7810 -38.7800
    -5.8743  -5.3774   2.5388   2.8107   3.2571   3.3591   3.7391   4.1728
     5.0458   5.1323   6.1584   6.7079   7.0383   8.5639   8.8824   9.5495
     9.9268

     occupation numbers 
     1.0000   1.0000   1.0000   1.0000   1.0000   1.0000   1.0000   1.0000
     1.0000   1.0000   1.0000   1.0000   1.0000   1.0000   1.0000   1.0000
     1.0000   1.0000   1.0000   1.0000   1.0000   0.0000   0.0000   0.0000
     0.0000

          k = 0.3333-0.1925 0.8437 (  1583 PWs)   bands (ev):

   -74.4028 -70.0028 -43.1503 -43.1487 -43.0820 -38.8068 -38.7830 -38.7805
    -5.5149  -5.2179   2.3718   2.7983   3.2241   3.3792   3.4760   4.2148
     5.0507   5.1465   5.4668   6.0153   6.5605   8.5189   8.9882   9.0347
     9.3042

     occupation numbers 
     1.0000   1.0000   1.0000   1.0000   1.0000   1.0000   1.0000   1.0000
     1.0000   1.0000   1.0000   1.0000   1.0000   1.0000   1.0000   1.0000
     1.0000   1.0000   1.0000   1.0000   1.0000   0.0000   0.0000   0.0000
     0.0000

          k = 0.3333-0.1925-1.1159 (  1581 PWs)   bands (ev):

   -74.4028 -70.0028 -43.1502 -43.1486 -43.0820 -38.8068 -38.7829 -38.7805
    -5.4255  -5.3100   2.2371   2.5714   3.3284   3.3957   3.7493   4.2176
     5.0754   5.1344   5.6034   6.0878   6.5903   8.5458   8.9105   8.9377
     9.2311

     occupation numbers 
     1.0000   1.0000   1.0000   1.0000   1.0000   1.0000   1.0000   1.0000
     1.0000   1.0000   1.0000   1.0000   1.0000   1.0000   1.0000   1.0000
     1.0000   1.0000   1.0000   1.0000   1.0000   0.0000   0.0000   0.0000
     0.0000

          k = 0.3333-0.1925-0.6260 (  1602 PWs)   bands (ev):

   -74.4030 -70.0030 -43.1491 -43.1483 -43.0822 -38.8070 -38.7811 -38.7800
    -5.7116  -5.5580   2.5230   2.7162   3.2570   3.3518   3.9619   4.1919
     4.9410   5.0862   6.4699   6.5550   7.0589   8.5523   8.7917   9.2415
     9.8165

     occupation numbers 
     1.0000   1.0000   1.0000   1.0000   1.0000   1.0000   1.0000   1.0000
     1.0000   1.0000   1.0000   1.0000   1.0000   1.0000   1.0000   1.0000
     1.0000   1.0000   1.0000   1.0000   1.0000   0.0000   0.0000   0.0000
     0.0000

          k = 0.3333 0.2694-0.2994 (  1594 PWs)   bands (ev):

   -74.4030 -70.0029 -43.1489 -43.1484 -43.0821 -38.8070 -38.7809 -38.7800
    -5.8743  -5.3774   2.5388   2.8107   3.2572   3.3591   3.7390   4.1729
     5.0458   5.1324   6.1583   6.7079   7.0382   8.5638   8.8824   9.5496
     9.9268

     occupation numbers 
     1.0000   1.0000   1.0000   1.0000   1.0000   1.0000   1.0000   1.0000
     1.0000   1.0000   1.0000   1.0000   1.0000   1.0000   1.0000   1.0000
     1.0000   1.0000   1.0000   1.0000   1.0000   0.0000   0.0000   0.0000
     0.0000

          k = 0.3333 0.2694 0.1905 (  1598 PWs)   bands (ev):

   -74.4030 -70.0030 -43.1490 -43.1483 -43.0822 -38.8071 -38.7810 -38.7800
    -5.9235  -5.3179   2.4385   2.8900   3.2559   3.3629   3.7318   4.1627
     5.0464   5.1655   6.0918   6.6925   7.0510   8.6193   8.7939   9.4801
    10.0856

     occupation numbers 
     1.0000   1.0000   1.0000   1.0000   1.0000   1.0000   1.0000   1.0000
     1.0000   1.0000   1.0000   1.0000   1.0000   1.0000   1.0000   1.0000
     1.0000   1.0000   1.0000   1.0000   1.0000   0.0000   0.0000   0.0000
     0.0000

          k = 0.3333 0.2694 0.6804 (  1583 PWs)   bands (ev):

   -74.4028 -70.0028 -43.1498 -43.1488 -43.0820 -38.8068 -38.7823 -38.7807
    -5.6214  -5.2127   2.5909   2.8011   3.1659   3.3659   3.5126   4.0989
     4.9957   5.1502   5.5837   6.0961   6.5970   8.5107   8.8693   9.1211
     9.3004

     occupation numbers 
     1.0000   1.0000   1.0000   1.0000   1.0000   1.0000   1.0000   1.0000
     1.0000   1.0000   1.0000   1.0000   1.0000   1.0000   1.0000   1.0000
     1.0000   1.0000   1.0000   1.0000   1.0000   0.0000   0.0000   0.0000
     0.0000

          k = 0.3333 0.2694-1.2792 (  1576 PWs)   bands (ev):

   -74.4027 -70.0027 -43.1503 -43.1491 -43.0819 -38.8067 -38.7830 -38.7812
    -5.3668  -5.1953   2.3398   2.5986   3.1849   3.5416   3.6847   3.9505
     4.8398   5.2243   5.6347   5.8759   6.2754   8.3334   8.6414   9.1075
     9.2478

     occupation numbers 
     1.0000   1.0000   1.0000   1.0000   1.0000   1.0000   1.0000   1.0000
     1.0000   1.0000   1.0000   1.0000   1.0000   1.0000   1.0000   1.0000
     1.0000   1.0000   1.0000   1.0000   1.0000   0.0000   0.0000   0.0000
     0.0000

          k = 0.3333 0.2694-0.7893 (  1589 PWs)   bands (ev):

   -74.4029 -70.0028 -43.1498 -43.1488 -43.0821 -38.8069 -38.7823 -38.7807
    -5.5368  -5.3039   2.4081   2.6493   3.2466   3.4690   3.7137   4.0666
     4.9164   5.1760   5.7678   6.2279   6.5618   8.3864   8.7789   9.1071
     9.4273

     occupation numbers 
     1.0000   1.0000   1.0000   1.0000   1.0000   1.0000   1.0000   1.0000
     1.0000   1.0000   1.0000   1.0000   1.0000   1.0000   1.0000   1.0000
     1.0000   1.0000   1.0000   1.0000   1.0000   0.0000   0.0000   0.0000
     0.0000

          k = 0.3333 0.7313-0.4627 (  1583 PWs)   bands (ev):

   -74.4028 -70.0028 -43.1502 -43.1487 -43.0820 -38.8068 -38.7829 -38.7805
    -5.5149  -5.2178   2.3717   2.7983   3.2240   3.3794   3.4760   4.2150
     5.0507   5.1466   5.4667   6.0152   6.5603   8.5187   8.9882   9.0347
     9.3041

     occupation numbers 
     1.0000   1.0000   1.0000   1.0000   1.0000   1.0000   1.0000   1.0000
     1.0000   1.0000   1.0000   1.0000   1.0000   1.0000   1.0000   1.0000
     1.0000   1.0000   1.0000   1.0000   1.0000   0.0000   0.0000   0.0000
     0.0000

          k = 0.3333 0.7313 0.0272 (  1583 PWs)   bands (ev):

   -74.4028 -70.0028 -43.1498 -43.1488 -43.0820 -38.8068 -38.7823 -38.7807
    -5.6213  -5.2127   2.5908   2.8011   3.1659   3.3660   3.5126   4.0990
     4.9956   5.1503   5.5838   6.0960   6.5970   8.5106   8.8693   9.1210
     9.3003

     occupation numbers 
     1.0000   1.0000   1.0000   1.0000   1.0000   1.0000   1.0000   1.0000
     1.0000   1.0000   1.0000   1.0000   1.0000   1.0000   1.0000   1.0000
     1.0000   1.0000   1.0000   1.0000   1.0000   0.0000   0.0000   0.0000
     0.0000

          k = 0.3333 0.7313 0.5171 (  1587 PWs)   bands (ev):

   -74.4028 -70.0028 -43.1502 -43.1487 -43.0821 -38.8069 -38.7829 -38.7805
    -5.4764  -5.2600   2.3773   2.8305   3.1143   3.3828   3.5325   4.2147
     5.0777   5.1397   5.4857   5.9904   6.5668   8.5452   8.9807   9.0333
     9.2118

     occupation numbers 
     1.0000   1.0000   1.0000   1.0000   1.0000   1.0000   1.0000   1.0000
     1.0000   1.0000   1.0000   1.0000   1.0000   1.0000   1.0000   1.0000
     1.0000   1.0000   1.0000   1.0000   1.0000   0.0000   0.0000   0.0000
     0.0000

          k = 0.3333 0.7313-1.4425 (  1573 PWs)   bands (ev):

   -74.4027 -70.0027 -43.1502 -43.1491 -43.0820 -38.8067 -38.7829 -38.7812
    -5.3483  -5.2174   2.4756   2.7877   3.0590   3.3363   3.6204   4.0363
     4.8558   5.2447   5.5570   5.8119   6.2186   8.3158   8.8025   9.0352
     9.1760

     occupation numbers 
     1.0000   1.0000   1.0000   1.0000   1.0000   1.0000   1.0000   1.0000
     1.0000   1.0000   1.0000   1.0000   1.0000   1.0000   1.0000   1.0000
     1.0000   1.0000   1.0000   1.0000   1.0000   0.0000   0.0000   0.0000
     0.0000

          k = 0.3333 0.7313-0.9526 (  1579 PWs)   bands (ev):

   -74.4027 -70.0027 -43.1502 -43.1492 -43.0820 -38.8067 -38.7830 -38.7813
    -5.3387  -5.2286   2.5539   2.9173   2.9978   3.1793   3.6023   4.0578
     4.8483   5.2456   5.5033   5.8059   6.1947   8.2866   8.8347   9.0371
     9.1380

     occupation numbers 
     1.0000   1.0000   1.0000   1.0000   1.0000   1.0000   1.0000   1.0000
     1.0000   1.0000   1.0000   1.0000   1.0000   1.0000   1.0000   1.0000
     1.0000   1.0000   1.0000   1.0000   1.0000   0.0000   0.0000   0.0000
     0.0000

          k = 0.3333-1.1162 0.1905 (  1581 PWs)   bands (ev):

   -74.4028 -70.0028 -43.1502 -43.1487 -43.0820 -38.8068 -38.7829 -38.7805
    -5.4255  -5.3100   2.2370   2.5713   3.3285   3.3958   3.7493   4.2177
     5.0755   5.1344   5.6034   6.0877   6.5901   8.5457   8.9105   8.9377
     9.2311

     occupation numbers 
     1.0000   1.0000   1.0000   1.0000   1.0000   1.0000   1.0000   1.0000
     1.0000   1.0000   1.0000   1.0000   1.0000   1.0000   1.0000   1.0000
     1.0000   1.0000   1.0000   1.0000   1.0000   0.0000   0.0000   0.0000
     0.0000

          k = 0.3333-1.1162 0.6804 (  1576 PWs)   bands (ev):

   -74.4027 -70.0027 -43.1502 -43.1492 -43.0819 -38.8067 -38.7829 -38.7813
    -5.3668  -5.1953   2.3398   2.5985   3.1850   3.5417   3.6847   3.9505
     4.8397   5.2244   5.6347   5.8759   6.2753   8.3333   8.6414   9.1075
     9.2477

     occupation numbers 
     1.0000   1.0000   1.0000   1.0000   1.0000   1.0000   1.0000   1.0000
     1.0000   1.0000   1.0000   1.0000   1.0000   1.0000   1.0000   1.0000
     1.0000   1.0000   1.0000   1.0000   1.0000   0.0000   0.0000   0.0000
     0.0000

          k = 0.3333-1.1162 1.1703 (  1573 PWs)   bands (ev):

   -74.4027 -70.0027 -43.1502 -43.1491 -43.0820 -38.8067 -38.7829 -38.7812
    -5.3483  -5.2174   2.4756   2.7877   3.0590   3.3364   3.6203   4.0363
     4.8558   5.2447   5.5570   5.8119   6.2185   8.3159   8.8025   9.0353
     9.1760

     occupation numbers 
     1.0000   1.0000   1.0000   1.0000   1.0000   1.0000   1.0000   1.0000
     1.0000   1.0000   1.0000   1.0000   1.0000   1.0000   1.0000   1.0000
     1.0000   1.0000   1.0000   1.0000   1.0000   0.0000   0.0000   0.0000
     0.0000

          k = 0.3333-1.1162-0.7893 (  1577 PWs)   bands (ev):

   -74.4028 -70.0027 -43.1502 -43.1486 -43.0819 -38.8067 -38.7829 -38.7805
    -5.5326  -5.1943   2.2235   2.5703   3.3930   3.4415   3.6911   4.2168
     5.0084   5.1416   5.5342   6.1144   6.5795   8.4522   8.9377   9.0263
     9.3952

     occupation numbers 
     1.0000   1.0000   1.0000   1.0000   1.0000   1.0000   1.0000   1.0000
     1.0000   1.0000   1.0000   1.0000   1.0000   1.0000   1.0000   1.0000
     1.0000   1.0000   1.0000   1.0000   1.0000   0.0000   0.0000   0.0000
     0.0000

          k = 0.3333-1.1162-0.2994 (  1580 PWs)   bands (ev):

   -74.4028 -70.0028 -43.1497 -43.1488 -43.0820 -38.8068 -38.7822 -38.7807
    -5.5654  -5.2729   2.4517   2.6908   3.2254   3.4689   3.6442   4.0848
     4.9480   5.1728   5.7191   6.1942   6.5813   8.4171   8.8113   9.1347
     9.4139

     occupation numbers 
     1.0000   1.0000   1.0000   1.0000   1.0000   1.0000   1.0000   1.0000
     1.0000   1.0000   1.0000   1.0000   1.0000   1.0000   1.0000   1.0000
     1.0000   1.0000   1.0000   1.0000   1.0000   0.0000   0.0000   0.0000
     0.0000

          k = 0.3333-0.6543 0.0272 (  1602 PWs)   bands (ev):

   -74.4030 -70.0030 -43.1491 -43.1484 -43.0822 -38.8070 -38.7810 -38.7800
    -5.7116  -5.5580   2.5230   2.7161   3.2571   3.3519   3.9618   4.1920
     4.9409   5.0863   6.4699   6.5550   7.0588   8.5522   8.7918   9.2415
     9.8164

     occupation numbers 
     1.0000   1.0000   1.0000   1.0000   1.0000   1.0000   1.0000   1.0000
     1.0000   1.0000   1.0000   1.0000   1.0000   1.0000   1.0000   1.0000
     1.0000   1.0000   1.0000   1.0000   1.0000   0.0000   0.0000   0.0000
     0.0000

          k = 0.3333-0.6543 0.5171 (  1589 PWs)   bands (ev):

   -74.4029 -70.0028 -43.1498 -43.1488 -43.0821 -38.8069 -38.7823 -38.7807
    -5.5368  -5.3039   2.4081   2.6493   3.2466   3.4689   3.7138   4.0666
     4.9164   5.1760   5.7679   6.2280   6.5617   8.3863   8.7789   9.1070
     9.4272

     occupation numbers 
     1.0000   1.0000   1.0000   1.0000   1.0000   1.0000   1.0000   1.0000
     1.0000   1.0000   1.0000   1.0000   1.0000   1.0000   1.0000   1.0000
     1.0000   1.0000   1.0000   1.0000   1.0000   0.0000   0.0000   0.0000
     0.0000

          k = 0.3333-0.6543 1.0070 (  1579 PWs)   bands (ev):

   -74.4027 -70.0027 -43.1503 -43.1491 -43.0820 -38.8067 -38.7830 -38.7812
    -5.3387  -5.2286   2.5539   2.9173   2.9978   3.1793   3.6023   4.0577
     4.8484   5.2455   5.5033   5.8060   6.1948   8.2867   8.8348   9.0371
     9.1380

     occupation numbers 
     1.0000   1.0000   1.0000   1.0000   1.0000   1.0000   1.0000   1.0000
     1.0000   1.0000   1.0000   1.0000   1.0000   1.0000   1.0000   1.0000
     1.0000   1.0000   1.0000   1.0000   1.0000   0.0000   0.0000   0.0000
     0.0000

          k = 0.3333-0.6543-0.9526 (  1580 PWs)   bands (ev):

   -74.4028 -70.0028 -43.1498 -43.1488 -43.0820 -38.8068 -38.7823 -38.7807
    -5.5654  -5.2729   2.4518   2.6908   3.2254   3.4688   3.6443   4.0847
     4.9481   5.1728   5.7191   6.1943   6.5813   8.4172   8.8114   9.1347
     9.4139

     occupation numbers 
     1.0000   1.0000   1.0000   1.0000   1.0000   1.0000   1.0000   1.0000
     1.0000   1.0000   1.0000   1.0000   1.0000   1.0000   1.0000   1.0000
     1.0000   1.0000   1.0000   1.0000   1.0000   0.0000   0.0000   0.0000
     0.0000

          k = 0.3333-0.6543-0.4627 (  1599 PWs)   bands (ev):

   -74.4030 -70.0030 -43.1491 -43.1484 -43.0822 -38.8070 -38.7810 -38.7800
    -5.7524  -5.5143   2.4859   2.7467   3.2584   3.3524   3.9586   4.1914
     4.9532   5.1035   6.4197   6.5892   7.0640   8.5844   8.7773   9.2604
     9.7936

     occupation numbers 
     1.0000   1.0000   1.0000   1.0000   1.0000   1.0000   1.0000   1.0000
     1.0000   1.0000   1.0000   1.0000   1.0000   1.0000   1.0000   1.0000
     1.0000   1.0000   1.0000   1.0000   1.0000   0.0000   0.0000   0.0000
     0.0000

     the Fermi energy is     7.8188 ev

!    total energy              =    -705.55818071 Ry
     total all-electron energy =     -6231.274988 Ry
     estimated scf accuracy    <          7.7E-12 Ry
     smearing contrib. (-TS)   =      -0.00000001 Ry
     internal energy E=F+TS    =    -705.55818071 Ry

     The total energy is F=E-TS. E is the sum of the following terms:
     one-electron contribution =    -304.66515515 Ry
     hartree contribution      =     169.26310293 Ry
     xc contribution           =     -66.17884646 Ry
     ewald contribution        =    -256.46491091 Ry
     one-center paw contrib.   =    -247.51237111 Ry
      -> PAW hartree energy AE =     175.27721438 Ry
      -> PAW hartree energy PS =    -176.23875936 Ry
      -> PAW xc energy AE      =    -104.51254572 Ry
      -> PAW xc energy PS      =      27.85322883 Ry
      -> total E_H with PAW    =     168.30155795 Ry
      -> total E_XC with PAW   =    -142.83816335 Ry

     total magnetization       =    -0.00 Bohr mag/cell
     absolute magnetization    =     8.97 Bohr mag/cell

     convergence has been achieved in  14 iterations

     Forces acting on atoms (cartesian axes, Ry/au):

     atom    1 type  1   force =    -0.00000133    0.00000077    0.00000193
     atom    2 type  2   force =     0.00000091   -0.00000052    0.00000093
     atom    3 type  3   force =     0.00000002   -0.00000001   -0.00000139
     atom    4 type  3   force =     0.00000040   -0.00000023   -0.00000147
     The non-local contrib.  to forces
     atom    1 type  1   force =     0.00296627   -0.00171258   -0.00117908
     atom    2 type  2   force =     0.00296251   -0.00171041   -0.00117753
     atom    3 type  3   force =    -0.00203506    0.00117494    0.00084278
     atom    4 type  3   force =    -0.00203344    0.00117400    0.00084219
     The ionic contribution  to forces
     atom    1 type  1   force =     0.30741367   -0.17748700   -0.12587358
     atom    2 type  2   force =     0.30776786   -0.17769060   -0.12601636
     atom    3 type  3   force =    -0.30752984    0.17755305    0.12591936
     atom    4 type  3   force =    -0.30765169    0.17762455    0.12597058
     The local contribution  to forces
     atom    1 type  1   force =    -0.31394828    0.18125912    0.12851102
     atom    2 type  2   force =    -0.31427779    0.18149524    0.12865192
     atom    3 type  3   force =     0.30891274   -0.17835213   -0.12649589
     atom    4 type  3   force =     0.30903481   -0.17842254   -0.12654695
     The core correction contribution to forces
     atom    1 type  1   force =     0.00327759   -0.00189232   -0.00133785
     atom    2 type  2   force =     0.00327919   -0.00189279   -0.00133840
     atom    3 type  3   force =     0.00036343   -0.00020982   -0.00014945
     atom    4 type  3   force =     0.00036343   -0.00020982   -0.00014945
     The Hubbard contrib.    to forces
     atom    1 type  1   force =     0.00000000    0.00000000    0.00000000
     atom    2 type  2   force =     0.00000000    0.00000000    0.00000000
     atom    3 type  3   force =     0.00000000    0.00000000    0.00000000
     atom    4 type  3   force =     0.00000000    0.00000000    0.00000000
     The SCF correction term to forces
     atom    1 type  1   force =     0.00000110   -0.00000063   -0.00000050
     atom    2 type  2   force =     0.00000127   -0.00000073   -0.00000062
     atom    3 type  3   force =     0.00000043   -0.00000025   -0.00000012
     atom    4 type  3   force =    -0.00000050    0.00000029    0.00000024

     Total force =     0.000004     Total SCF correction =     0.000002
     SCF correction compared to forces is large: reduce conv_thr to get better values


     Computing stress (Cartesian axis) and pressure

          total   stress  (Ry/bohr**3)                   (kbar)     P=     -382.14
  -0.00265626   0.00006825   0.00005088         -390.75       10.04        7.49
   0.00006825  -0.00257745  -0.00002938           10.04     -379.16       -4.32
   0.00005088  -0.00002938  -0.00255951            7.49       -4.32     -376.52

     kinetic stress (kbar)  15482.92     19.64     14.25
                               19.64  15505.59     -8.23
                               14.25     -8.23  15511.02

     local   stress (kbar)  -3378.21   1110.71    785.26
                             1110.71  -2095.68   -453.37
                              785.26   -453.37  -1771.44

     nonloc. stress (kbar)   -913.61    -10.42     -7.34
                              -10.42   -925.65      4.24
                               -7.34      4.24   -928.71

     hartree stress (kbar)  14852.26   -380.30   -268.86
                             -380.30  14413.13    155.23
                             -268.86    155.23  14302.09

     exc-cor stress (kbar)  -2383.39     -1.62     -1.14
                               -1.62  -2385.26      0.66
                               -1.14      0.66  -2385.73

     corecor stress (kbar)  -2678.37      0.82      0.58
                                0.82  -2677.43     -0.33
                                0.58     -0.33  -2677.19

     ewald   stress (kbar) -21372.34   -728.78   -515.26
                             -728.78 -22213.87    297.48
                             -515.26    297.48 -22426.58

     hubbard stress (kbar)      0.00      0.00      0.00
                                0.00      0.00      0.00
                                0.00      0.00      0.00

     DFT-D   stress (kbar)      0.00      0.00      0.00
                                0.00      0.00      0.00
                                0.00      0.00      0.00

     XDM     stress (kbar)      0.00      0.00      0.00
                                0.00      0.00      0.00
                                0.00      0.00      0.00

     dft-nl  stress (kbar)      0.00      0.00      0.00
                                0.00      0.00      0.00
                                0.00      0.00      0.00

     TS-vdW  stress (kbar)      0.00      0.00      0.00
                                0.00      0.00      0.00
                                0.00      0.00      0.00

     MDB     stress (kbar)      0.00      0.00      0.00
                                0.00      0.00      0.00
                                0.00      0.00      0.00

     3D-RISM stress (kbar)      0.00      0.00      0.00
                                0.00      0.00      0.00
                                0.00      0.00      0.00


     BFGS Geometry Optimization
     Energy error            =      0.0E+00 Ry
     Gradient error          =      1.9E-06 Ry/Bohr
     Cell gradient error     =      3.9E+02 kbar

     number of scf cycles    =   1
     number of bfgs steps    =   0

     enthalpy           new  =    -705.5581807126 Ry

     new trust radius        =       0.3176701665 bohr
WARNING! With ibrav=0, cell_dofree='ibrav' has no effect. 
     new conv_thr            =            1.0E-10 Ry

     new unit-cell volume =    467.23759 a.u.^3 (    69.23747 Ang^3 )
     density =      4.17323 g/cm^3

CELL_PARAMETERS (angstrom)
   7.305105496   0.013350047   0.009953601
   1.832056903   3.173216160  -0.000000012
   1.832266617   1.057617550   2.991682189

ATOMIC_POSITIONS (crystal)
Mn1              0.3697676417        0.7534821763        0.7535003640
Mn2              0.8697658743        0.7534833410        0.7535015095
S                0.0052336285        0.9965169575        0.9964988320
S                0.5052328876        0.9965174652        0.9964992945



     Writing config-only to output data dir ./temp/mns.save/ :
     XML data file
     NEW-OLD atomic charge density approx. for the potential

     Check: negative core charge=   -0.000081
     Generating pointlists ...
     new r_m :   0.1144 (alat units)  1.6921 (a.u.) for type    1
     new r_m :   0.1144 (alat units)  1.6921 (a.u.) for type    2
     new r_m :   0.1144 (alat units)  1.6921 (a.u.) for type    3

     total cpu time spent up to now is       51.7 secs

     Self-consistent Calculation

     iteration #  1     ecut=    30.00 Ry     beta= 0.70
     Davidson diagonalization with overlap

---- Real-time Memory Report at c_bands before calling an iterative solver
            77 MiB given to the printing process from OS
             0 MiB allocation reported by mallinfo(arena+hblkhd)
          1703 MiB available memory on the node where the printing process lives
------------------
     ethr =  1.00E-06,  avg # of iterations = 11.8

     total cpu time spent up to now is       62.1 secs

     total energy              =    -705.25497246 Ry
     estimated scf accuracy    <       0.42333938 Ry

     total magnetization       =    -0.00 Bohr mag/cell
     absolute magnetization    =     8.31 Bohr mag/cell

     iteration #  2     ecut=    30.00 Ry     beta= 0.70
     Davidson diagonalization with overlap

---- Real-time Memory Report at c_bands before calling an iterative solver
            77 MiB given to the printing process from OS
             0 MiB allocation reported by mallinfo(arena+hblkhd)
          1728 MiB available memory on the node where the printing process lives
------------------
     ethr =  1.01E-03,  avg # of iterations =  5.5

     total cpu time spent up to now is       67.8 secs

     total energy              =    -705.35363898 Ry
     estimated scf accuracy    <       2.66787691 Ry

     total magnetization       =    -0.00 Bohr mag/cell
     absolute magnetization    =     7.43 Bohr mag/cell

     iteration #  3     ecut=    30.00 Ry     beta= 0.70
     Davidson diagonalization with overlap

---- Real-time Memory Report at c_bands before calling an iterative solver
            77 MiB given to the printing process from OS
             0 MiB allocation reported by mallinfo(arena+hblkhd)
          1689 MiB available memory on the node where the printing process lives
------------------
     ethr =  1.01E-03,  avg # of iterations =  4.9

     total cpu time spent up to now is       72.0 secs

     total energy              =    -705.68519615 Ry
     estimated scf accuracy    <       0.06992513 Ry

     total magnetization       =    -0.00 Bohr mag/cell
     absolute magnetization    =     8.16 Bohr mag/cell

     iteration #  4     ecut=    30.00 Ry     beta= 0.70
     Davidson diagonalization with overlap

---- Real-time Memory Report at c_bands before calling an iterative solver
            77 MiB given to the printing process from OS
             0 MiB allocation reported by mallinfo(arena+hblkhd)
          1711 MiB available memory on the node where the printing process lives
------------------
     ethr =  1.66E-04,  avg # of iterations =  4.2

     total cpu time spent up to now is       75.6 secs

     total energy              =    -705.69696284 Ry
     estimated scf accuracy    <       0.01962807 Ry

     total magnetization       =     0.00 Bohr mag/cell
[...]
     1.0000   1.0000   1.0000   1.0000   1.0000   0.0000   0.0000   0.0000
     0.0000

          k = 0.3674 0.2810-1.3704 (  1286 PWs)   bands (ev):

   -71.1553 -67.4734 -39.9477 -39.9430 -39.8242 -36.3044 -36.2748 -36.2696
    -3.3421  -3.1083   4.1809   4.3930   5.3333   5.7244   5.9116   6.2219
     7.6599   8.2630   8.5989   8.8131   9.4617  10.6288  11.0751  11.6891
    12.0463

     occupation numbers 
     1.0000   1.0000   1.0000   1.0000   1.0000   1.0000   1.0000   1.0000
     1.0000   1.0000   1.0000   1.0000   1.0000   1.0000   1.0000   1.0000
     1.0000   1.0000   1.0000   1.0000   1.0000   0.0419   0.0000   0.0000
     0.0000

          k = 0.3641 0.2829-0.8460 (  1273 PWs)   bands (ev):

   -71.1553 -67.4734 -39.9457 -39.9416 -39.8244 -36.3047 -36.2725 -36.2677
    -3.6036  -3.2655   4.2985   4.5160   5.4178   5.7011   5.9288   6.2378
     7.8244   8.1304   8.7853   9.3065   9.8626  10.7922  11.2582  11.8721
    12.2508

     occupation numbers 
     1.0000   1.0000   1.0000   1.0000   1.0000   1.0000   1.0000   1.0000
     1.0000   1.0000   1.0000   1.0000   1.0000   1.0000   1.0000   1.0000
     1.0000   1.0000   1.0000   1.0000   1.0000   0.0003   0.0000   0.0000
     0.0000

          k = 0.3576 0.7798-0.4947 (  1270 PWs)   bands (ev):

   -71.1552 -67.4734 -39.9471 -39.9414 -39.8243 -36.3046 -36.2748 -36.2668
    -3.5799  -3.1272   4.2705   4.6396   5.3799   5.6424   5.7027   6.3576
     7.9486   8.1177   8.4596   9.0198   9.6721  11.0167  11.5294  11.6659
    12.3521

     occupation numbers 
     1.0000   1.0000   1.0000   1.0000   1.0000   1.0000   1.0000   1.0000
     1.0000   1.0000   1.0000   1.0000   1.0000   1.0000   1.0000   1.0000
     1.0000   1.0000   1.0000   1.0000   1.0000   0.0000   0.0000   0.0000
     0.0000

          k = 0.3543 0.7817 0.0297 (  1270 PWs)   bands (ev):

   -71.1552 -67.4734 -39.9450 -39.9422 -39.8244 -36.3047 -36.2725 -36.2676
    -3.7456  -3.1106   4.5407   4.7234   5.2465   5.5008   5.7993   6.2541
     7.9294   8.0738   8.5026   9.1138   9.8170  11.0037  11.3653  11.9030
    12.0869

     occupation numbers 
     1.0000   1.0000   1.0000   1.0000   1.0000   1.0000   1.0000   1.0000
     1.0000   1.0000   1.0000   1.0000   1.0000   1.0000   1.0000   1.0000
     1.0000   1.0000   1.0000   1.0000   1.0000   0.0000   0.0000   0.0000
     0.0000

          k = 0.3510 0.7836 0.5541 (  1274 PWs)   bands (ev):

   -71.1552 -67.4734 -39.9471 -39.9413 -39.8244 -36.3047 -36.2748 -36.2668
    -3.5146  -3.1999   4.2810   4.6691   5.2507   5.6511   5.7725   6.3522
     7.9631   8.1168   8.4807   9.0198   9.6965  11.0607  11.5445  11.6628
    12.2039

     occupation numbers 
     1.0000   1.0000   1.0000   1.0000   1.0000   1.0000   1.0000   1.0000
     1.0000   1.0000   1.0000   1.0000   1.0000   1.0000   1.0000   1.0000
     1.0000   1.0000   1.0000   1.0000   1.0000   0.0000   0.0000   0.0000
     0.0000

          k = 0.3642 0.7760-1.5434 (  1284 PWs)   bands (ev):

   -71.1553 -67.4734 -39.9471 -39.9435 -39.8242 -36.3044 -36.2748 -36.2695
    -3.3064  -3.1536   4.3569   4.6200   5.1602   5.4437   5.9205   6.2436
     7.6814   8.2649   8.5568   8.7174   9.3647  10.5670  11.3543  11.7333
    11.8365

     occupation numbers 
     1.0000   1.0000   1.0000   1.0000   1.0000   1.0000   1.0000   1.0000
     1.0000   1.0000   1.0000   1.0000   1.0000   1.0000   1.0000   1.0000
     1.0000   1.0000   1.0000   1.0000   1.0000   0.1384   0.0000   0.0000
     0.0000

          k = 0.3609 0.7779-1.0190 (  1289 PWs)   bands (ev):

   -71.1553 -67.4734 -39.9471 -39.9435 -39.8243 -36.3045 -36.2748 -36.2695
    -3.2843  -3.1807   4.4617   4.7648   5.0827   5.2428   5.9110   6.2524
     7.6929   8.2718   8.4707   8.7399   9.3430  10.5251  11.3858  11.7503
    11.7991

     occupation numbers 
     1.0000   1.0000   1.0000   1.0000   1.0000   1.0000   1.0000   1.0000
     1.0000   1.0000   1.0000   1.0000   1.0000   1.0000   1.0000   1.0000
     1.0000   1.0000   1.0000   1.0000   1.0000   0.2574   0.0000   0.0000
     0.0000

          k = 0.3704-1.2001 0.1973 (  1276 PWs)   bands (ev):

   -71.1553 -67.4734 -39.9471 -39.9414 -39.8243 -36.3046 -36.2748 -36.2668
    -3.4096  -3.3017   4.0902   4.3675   5.5522   5.6546   6.0304   6.3551
     7.9134   8.0999   8.7117   9.1008   9.6999  11.1568  11.4015  11.5511
    11.9865

     occupation numbers 
     1.0000   1.0000   1.0000   1.0000   1.0000   1.0000   1.0000   1.0000
     1.0000   1.0000   1.0000   1.0000   1.0000   1.0000   1.0000   1.0000
     1.0000   1.0000   1.0000   1.0000   1.0000   0.0000   0.0000   0.0000
     0.0000

          k = 0.3671-1.1982 0.7217 (  1284 PWs)   bands (ev):

   -71.1553 -67.4734 -39.9471 -39.9435 -39.8241 -36.3044 -36.2748 -36.2695
    -3.3421  -3.1080   4.1817   4.3938   5.3344   5.7244   5.9129   6.2219
     7.6627   8.2656   8.6034   8.8137   9.4639  10.6314  11.0769  11.6915
    12.0465

     occupation numbers 
     1.0000   1.0000   1.0000   1.0000   1.0000   1.0000   1.0000   1.0000
     1.0000   1.0000   1.0000   1.0000   1.0000   1.0000   1.0000   1.0000
     1.0000   1.0000   1.0000   1.0000   1.0000   0.0396   0.0000   0.0000
     0.0000

          k = 0.3638-1.1963 1.2461 (  1284 PWs)   bands (ev):

   -71.1553 -67.4734 -39.9471 -39.9435 -39.8242 -36.3044 -36.2748 -36.2695
    -3.3063  -3.1537   4.3570   4.6202   5.1605   5.4437   5.9202   6.2435
     7.6813   8.2649   8.5565   8.7172   9.3644  10.5672  11.3546  11.7339
    11.8364

     occupation numbers 
     1.0000   1.0000   1.0000   1.0000   1.0000   1.0000   1.0000   1.0000
     1.0000   1.0000   1.0000   1.0000   1.0000   1.0000   1.0000   1.0000
     1.0000   1.0000   1.0000   1.0000   1.0000   0.1381   0.0000   0.0000
     0.0000

          k = 0.3770-1.2040-0.8514 (  1264 PWs)   bands (ev):

   -71.1551 -67.4733 -39.9470 -39.9413 -39.8242 -36.3045 -36.2747 -36.2668
    -3.6057  -3.0863   4.0659   4.3596   5.6454   5.7489   5.9298   6.3718
     7.9126   8.1387   8.5696   9.0444   9.6563  10.9036  11.4062  11.6633
    12.4540

     occupation numbers 
     1.0000   1.0000   1.0000   1.0000   1.0000   1.0000   1.0000   1.0000
     1.0000   1.0000   1.0000   1.0000   1.0000   1.0000   1.0000   1.0000
     1.0000   1.0000   1.0000   1.0000   1.0000   0.0000   0.0000   0.0000
     0.0000

          k = 0.3737-1.2021-0.3271 (  1276 PWs)   bands (ev):

   -71.1553 -67.4735 -39.9451 -39.9423 -39.8244 -36.3048 -36.2725 -36.2676
    -3.6535  -3.2120   4.3520   4.5678   5.3737   5.6662   5.8754   6.2502
     7.8505   8.1162   8.6884   9.2260   9.8650  10.8253  11.2755  11.8878
    12.2298

     occupation numbers 
     1.0000   1.0000   1.0000   1.0000   1.0000   1.0000   1.0000   1.0000
     1.0000   1.0000   1.0000   1.0000   1.0000   1.0000   1.0000   1.0000
     1.0000   1.0000   1.0000   1.0000   1.0000   0.0001   0.0000   0.0000
     0.0000

          k = 0.3672-0.7052 0.0243 (  1266 PWs)   bands (ev):

   -71.1554 -67.4736 -39.9421 -39.9402 -39.8248 -36.3053 -36.2683 -36.2653
    -3.8398  -3.6657   4.4950   4.6955   5.4885   5.5564   6.0863   6.3160
     7.8654   7.9696   9.7261   9.9527  10.1713  11.1483  11.4361  12.1379
    12.8870

     occupation numbers 
     1.0000   1.0000   1.0000   1.0000   1.0000   1.0000   1.0000   1.0000
     1.0000   1.0000   1.0000   1.0000   1.0000   1.0000   1.0000   1.0000
     1.0000   1.0000   1.0000   1.0000   0.9988   0.0000   0.0000   0.0000
     0.0000

          k = 0.3639-0.7032 0.5487 (  1274 PWs)   bands (ev):

   -71.1553 -67.4734 -39.9457 -39.9416 -39.8244 -36.3047 -36.2725 -36.2677
    -3.6038  -3.2653   4.2981   4.5154   5.4172   5.7003   5.9299   6.2373
     7.8225   8.1284   8.7858   9.3059   9.8595  10.7898  11.2568  11.8716
    12.2507

     occupation numbers 
     1.0000   1.0000   1.0000   1.0000   1.0000   1.0000   1.0000   1.0000
     1.0000   1.0000   1.0000   1.0000   1.0000   1.0000   1.0000   1.0000
     1.0000   1.0000   1.0000   1.0000   1.0000   0.0003   0.0000   0.0000
     0.0000

          k = 0.3606-0.7013 1.0731 (  1289 PWs)   bands (ev):

   -71.1553 -67.4734 -39.9477 -39.9429 -39.8243 -36.3045 -36.2748 -36.2695
    -3.2843  -3.1808   4.4615   4.7646   5.0830   5.2431   5.9109   6.2521
     7.6929   8.2714   8.4707   8.7397   9.3434  10.5251  11.3860  11.7504
    11.7987

     occupation numbers 
     1.0000   1.0000   1.0000   1.0000   1.0000   1.0000   1.0000   1.0000
     1.0000   1.0000   1.0000   1.0000   1.0000   1.0000   1.0000   1.0000
     1.0000   1.0000   1.0000   1.0000   1.0000   0.2574   0.0000   0.0000
     0.0000

          k = 0.3738-0.7090-1.0244 (  1276 PWs)   bands (ev):

   -71.1553 -67.4735 -39.9457 -39.9416 -39.8244 -36.3048 -36.2725 -36.2677
    -3.6536  -3.2120   4.3520   4.5677   5.3732   5.6658   5.8762   6.2501
     7.8507   8.1159   8.6885   9.2265   9.8649  10.8254  11.2752  11.8878
    12.2305

     occupation numbers 
     1.0000   1.0000   1.0000   1.0000   1.0000   1.0000   1.0000   1.0000
     1.0000   1.0000   1.0000   1.0000   1.0000   1.0000   1.0000   1.0000
     1.0000   1.0000   1.0000   1.0000   1.0000   0.0001   0.0000   0.0000
     0.0000

          k = 0.3705-0.7071-0.5001 (  1270 PWs)   bands (ev):

   -71.1554 -67.4736 -39.9423 -39.9402 -39.8247 -36.3052 -36.2684 -36.2653
    -3.9174  -3.5825   4.4356   4.7387   5.4831   5.5718   6.0846   6.3117
     7.8580   7.9885   9.6623   9.8884  10.2016  11.2031  11.3601  12.1912
    12.8553

     occupation numbers 
     1.0000   1.0000   1.0000   1.0000   1.0000   1.0000   1.0000   1.0000
     1.0000   1.0000   1.0000   1.0000   1.0000   1.0000   1.0000   1.0000
     1.0000   1.0000   1.0000   1.0000   0.9966   0.0000   0.0000   0.0000
     0.0000

     the Fermi energy is    10.4624 ev

!    total energy              =    -705.51317522 Ry
     total all-electron energy =     -6231.229982 Ry
     estimated scf accuracy    <          3.2E-13 Ry
     smearing contrib. (-TS)   =      -0.00093234 Ry
     internal energy E=F+TS    =    -705.51224288 Ry

     The total energy is F=E-TS. E is the sum of the following terms:
     one-electron contribution =    -273.74391854 Ry
     hartree contribution      =     157.96739031 Ry
     xc contribution           =     -66.37877376 Ry
     ewald contribution        =    -275.82283794 Ry
     one-center paw contrib.   =    -247.53410294 Ry
      -> PAW hartree energy AE =     179.47093646 Ry
      -> PAW hartree energy PS =    -180.42766618 Ry
      -> PAW xc energy AE      =    -104.65986326 Ry
      -> PAW xc energy PS      =      27.99201724 Ry
      -> total E_H with PAW    =     157.01066059 Ry
      -> total E_XC with PAW   =    -143.04661977 Ry

     total magnetization       =    -0.00 Bohr mag/cell
     absolute magnetization    =     7.56 Bohr mag/cell

     convergence has been achieved in  19 iterations

     Forces acting on atoms (cartesian axes, Ry/au):

     atom    1 type  1   force =     0.00033578   -0.00019386   -0.00014226
     atom    2 type  2   force =     0.00033648   -0.00019427   -0.00014259
     atom    3 type  3   force =    -0.00033615    0.00019408    0.00014244
     atom    4 type  3   force =    -0.00033611    0.00019405    0.00014241
     The non-local contrib.  to forces
     atom    1 type  1   force =    -0.00831026    0.00479793    0.00366793
     atom    2 type  2   force =    -0.00831130    0.00479853    0.00366834
     atom    3 type  3   force =    -0.00719382    0.00415335    0.00292947
     atom    4 type  3   force =    -0.00719318    0.00415298    0.00292921
     The ionic contribution  to forces
     atom    1 type  1   force =     0.60572197   -0.34971593   -0.24721388
     atom    2 type  2   force =     0.60578084   -0.34974882   -0.24723780
     atom    3 type  3   force =    -0.60574379    0.34972729    0.24722292
     atom    4 type  3   force =    -0.60575902    0.34973746    0.24722876
     The local contribution  to forces
     atom    1 type  1   force =    -0.60369663    0.34854534    0.24612898
     atom    2 type  2   force =    -0.60373516    0.34861005    0.24615231
     atom    3 type  3   force =     0.61195125   -0.35331183   -0.24974832
     atom    4 type  3   force =     0.61196632   -0.35332049   -0.24975384
     The core correction contribution to forces
     atom    1 type  1   force =     0.00672640   -0.00388350   -0.00277140
     atom    2 type  2   force =     0.00672705   -0.00388343   -0.00277160
     atom    3 type  3   force =     0.00075639   -0.00043670   -0.00030782
     atom    4 type  3   force =     0.00075638   -0.00043669   -0.00030781
     The Hubbard contrib.    to forces
     atom    1 type  1   force =     0.00000000    0.00000000    0.00000000
     atom    2 type  2   force =     0.00000000    0.00000000    0.00000000
     atom    3 type  3   force =     0.00000000    0.00000000    0.00000000
     atom    4 type  3   force =     0.00000000    0.00000000    0.00000000
     The SCF correction term to forces
     atom    1 type  1   force =     0.00000015   -0.00000008   -0.00000004
     atom    2 type  2   force =    -0.00000004    0.00000002    0.00000001
     atom    3 type  3   force =    -0.00000008    0.00000004    0.00000003
     atom    4 type  3   force =     0.00000011   -0.00000006   -0.00000005

     Total force =     0.000827     Total SCF correction =     0.000000


     Computing stress (Cartesian axis) and pressure

          total   stress  (Ry/bohr**3)                   (kbar)     P=     -342.95
  -0.00237293   0.00005199   0.00003942         -349.07        7.65        5.80
   0.00005199  -0.00231289  -0.00002276            7.65     -340.24       -3.35
   0.00003942  -0.00002276  -0.00230817            5.80       -3.35     -339.54

     kinetic stress (kbar)  19607.83    -30.20    -21.27
                              -30.20  19572.95     12.28
                              -21.27     12.28  19562.38

     local   stress (kbar)  -1169.42   1599.47   1125.69
                             1599.47    677.49   -649.92
                             1125.69   -649.92   1147.69

     nonloc. stress (kbar)  -1231.97     16.28     11.45
                               16.28  -1213.16     -6.61
                               11.45     -6.61  -1208.25

     hartree stress (kbar)  17350.16   -552.47   -388.94
                             -552.47  16712.23    224.56
                             -388.94    224.56  16550.36

     exc-cor stress (kbar)  -2981.02     -2.58     -1.83
                               -2.58  -2984.00      1.05
                               -1.83      1.05  -2984.77

     corecor stress (kbar)  -3354.38     -0.23     -0.07
                               -0.23  -3354.64      0.04
                               -0.07      0.04  -3354.70

     ewald   stress (kbar) -28570.27  -1022.63   -719.23
                            -1022.63 -29751.11    415.25
                             -719.23    415.25 -30052.25

     hubbard stress (kbar)      0.00      0.00      0.00
                                0.00      0.00      0.00
                                0.00      0.00      0.00

     DFT-D   stress (kbar)      0.00      0.00      0.00
                                0.00      0.00      0.00
                                0.00      0.00      0.00

     XDM     stress (kbar)      0.00      0.00      0.00
                                0.00      0.00      0.00
                                0.00      0.00      0.00

     dft-nl  stress (kbar)      0.00      0.00      0.00
                                0.00      0.00      0.00
                                0.00      0.00      0.00

     TS-vdW  stress (kbar)      0.00      0.00      0.00
                                0.00      0.00      0.00
                                0.00      0.00      0.00

     MDB     stress (kbar)      0.00      0.00      0.00
                                0.00      0.00      0.00
                                0.00      0.00      0.00

     3D-RISM stress (kbar)      0.00      0.00      0.00
                                0.00      0.00      0.00
                                0.00      0.00      0.00


     Writing all to output data dir ./temp/mns.save/ :
     XML data file, charge density, pseudopotentials, collected wavefunctions

     init_run     :      2.84s CPU      2.91s WALL (       2 calls)
     electrons    :    473.05s CPU    483.35s WALL (      10 calls)
     update_pot   :      2.58s CPU      2.76s WALL (       8 calls)
     forces       :      5.12s CPU      5.18s WALL (      10 calls)
     stress       :     16.17s CPU     16.21s WALL (      10 calls)

     Called by init_run:
     wfcinit      :      1.27s CPU      1.29s WALL (       2 calls)
     wfcinit:atom :      0.01s CPU      0.01s WALL (     152 calls)
     wfcinit:wfcr :      1.18s CPU      1.21s WALL (     152 calls)
     potinit      :      0.82s CPU      0.84s WALL (       2 calls)
     hinit0       :      0.60s CPU      0.61s WALL (       2 calls)

     Called by electrons:
     c_bands      :    366.05s CPU    371.91s WALL (     146 calls)
     sum_band     :     50.38s CPU     51.30s WALL (     146 calls)
     v_of_rho     :      1.80s CPU      1.86s WALL (     150 calls)
     v_h          :      0.06s CPU      0.06s WALL (     150 calls)
     v_xc         :      1.97s CPU      2.03s WALL (     170 calls)
     newd         :     10.28s CPU     10.65s WALL (     150 calls)
     PAW_pot      :     49.86s CPU     53.29s WALL (     158 calls)
     mix_rho      :      0.47s CPU      0.48s WALL (     146 calls)

     Called by c_bands:
     init_us_2    :      5.21s CPU      5.28s WALL (   24472 calls)
     cegterg      :    354.32s CPU    360.03s WALL (   11096 calls)

     Called by sum_band:
     sum_band:wei :      0.13s CPU      0.14s WALL (     146 calls)
     sum_band:loo :     33.34s CPU     34.19s WALL (     146 calls)
     sum_band:buf :      0.78s CPU      0.78s WALL (   11096 calls)
     sum_band:ini :      1.95s CPU      1.97s WALL (   11096 calls)
     sum_band:cal :     12.95s CPU     13.36s WALL (   11704 calls)
     sum_band:bec :      0.75s CPU      0.76s WALL (   11704 calls)
     addusdens    :     16.39s CPU     16.44s WALL (     146 calls)
                                        0.00s GPU  (     146 calls)
     addusd:skk   :      0.03s CPU      0.03s WALL (     438 calls)
                                        0.00s GPU  (     438 calls)

     Called by *egterg:
     cdiaghg      :     43.94s CPU     44.31s WALL (   50814 calls)
     cegterg:over :     33.82s CPU     34.46s WALL (   40782 calls)
     cegterg:upda :     15.40s CPU     15.49s WALL (   40782 calls)
     cegterg:last :     36.88s CPU     37.00s WALL (   26081 calls)
     h_psi        :    174.32s CPU    178.48s WALL (   52030 calls)
     s_psi        :     31.94s CPU     32.14s WALL (   52030 calls)
     g_psi        :      0.55s CPU      0.56s WALL (   40782 calls)

     Called by h_psi:
     h_psi:calbec :     39.63s CPU     41.07s WALL (   52030 calls)
     vloc_psi     :    100.16s CPU    102.63s WALL (   52030 calls)
     add_vuspsi   :     32.74s CPU     32.98s WALL (   52030 calls)

     General routines
     calbec       :     56.52s CPU     58.46s WALL (   67534 calls)
     fft          :      0.94s CPU      0.99s WALL (    4150 calls)
     ffts         :      0.25s CPU      0.26s WALL (     592 calls)
     fftw         :    100.95s CPU    103.45s WALL ( 1839434 calls)
     interpolate  :      0.31s CPU      0.32s WALL (     300 calls)

     Parallel routines

     PAW routines
     PAW_pot      :     49.86s CPU     53.29s WALL (     158 calls)
     PAW_symme    :      0.02s CPU      0.02s WALL (     304 calls)

     PWSCF        :   8m24.17s CPU   8m36.14s WALL


   This run was terminated on:  17:14: 7  31Jan2025            

=------------------------------------------------------------------------------=
   JOB DONE.
=------------------------------------------------------------------------------=
