
     Program PWSCF v.7.3.1 starts on 19Jan2025 at 13:29:14 

     This program is part of the open-source Quantum ESPRESSO suite
     for quantum simulation of materials; please cite
         "P. Giannozzi et al., J. Phys.:Condens. Matter 21 395502 (2009);
         "P. Giannozzi et al., J. Phys.:Condens. Matter 29 465901 (2017);
         "P. Giannozzi et al., J. Chem. Phys. 152 154105 (2020);
          URL http://www.quantum-espresso.org", 
     in publications or presentations arising from this work. More details at
     http://www.quantum-espresso.org/quote

     Parallel version (MPI), running on     6 processors

     MPI processes distributed on     1 nodes
     2129 MiB available memory on the printing compute node when the environment starts

     Reading input from relax.in

     Current dimensions of program PWSCF are:
     Max number of different atomic species (ntypx) = 10
     Max number of k-points (npk) =  40000
     Max angular momentum in pseudopotentials (lmaxx) =  4
     file Mn.pbe-spn-kjpaw_psl.0.3.1.UPF: wavefunction(s)  3P 3D renormalized
     file Mn.pbe-spn-kjpaw_psl.0.3.1.UPF: wavefunction(s)  3P 3D renormalized
     file Mn.pbe-spn-kjpaw_psl.0.3.1.UPF: wavefunction(s)  3P 3D renormalized
     file Mn.pbe-spn-kjpaw_psl.0.3.1.UPF: wavefunction(s)  3P 3D renormalized
     file S.pbe-n-kjpaw_psl.1.0.0.UPF: wavefunction(s)  3S 3P renormalized

     R & G space division:  proc/nbgrp/npool/nimage =       6
     Subspace diagonalization in iterative solution of the eigenvalue problem:
     a serial algorithm will be used


     Parallelization info
     --------------------
     sticks:   dense  smooth     PW     G-vecs:    dense   smooth      PW
     Min         374     300     92                 5900     4227     706
     Max         375     301     93                 5902     4229     707
     Sum        2245    1801    555                35405    25365    4237

     Using Slab Decomposition



     bravais-lattice index     =            0
     lattice parameter (alat)  =      14.7866  a.u.
     unit-cell volume          =    1143.0296 (a.u.)^3
     number of atoms/cell      =            8
     number of atomic types    =            5
     number of electrons       =        84.00
     number of Kohn-Sham states=           50
     kinetic-energy cutoff     =      30.0000  Ry
     charge density cutoff     =     150.0000  Ry
     scf convergence threshold =      1.0E-10
     mixing beta               =       0.7000
     number of iterations used =            8  plain     mixing
     energy convergence thresh.=      1.0E-05
     force convergence thresh. =      1.0E-04
     Exchange-correlation= SLA  PW   PBX  PBC
                           (   1   4   3   4   0   0   0)
     nstep                     =           50


     celldm(1)=  14.786571  celldm(2)=   0.000000  celldm(3)=   0.000000
     celldm(4)=   0.000000  celldm(5)=   0.000000  celldm(6)=   0.000000

     crystal axes: (cart. coord. in units of alat)
               a(1) = (   1.000000   0.000000   0.000000 )  
               a(2) = (   0.500000   0.866025   0.000000 )  
               a(3) = (   0.250000   0.144338   0.408248 )  

     reciprocal axes: (cart. coord. in units 2 pi/alat)
               b(1) = (  1.000000 -0.577350 -0.408248 )  
               b(2) = (  0.000000  1.154700 -0.408248 )  
               b(3) = (  0.000000  0.000000  2.449490 )  


     PseudoPot. # 1 for Mn read from file:
     ./../../../pseudos/Mn.pbe-spn-kjpaw_psl.0.3.1.UPF
     MD5 check sum: ba19e6d7ccbc12830efad05ba8577d9c
     Pseudo is Projector augmented-wave + core cor, Zval = 15.0
     Generated using &quot;atomic&quot; code by A. Dal Corso  v.6.2.2
     Shape of augmentation charge: PSQ
     Using radial grid of 1187 points,  6 beta functions with: 
                l(1) =   0
                l(2) =   0
                l(3) =   1
                l(4) =   1
                l(5) =   2
                l(6) =   2
     Q(r) pseudized with 0 coefficients 


     PseudoPot. # 2 for Mn read from file:
     ./../../../pseudos/Mn.pbe-spn-kjpaw_psl.0.3.1.UPF
     MD5 check sum: ba19e6d7ccbc12830efad05ba8577d9c
     Pseudo is Projector augmented-wave + core cor, Zval = 15.0
     Generated using &quot;atomic&quot; code by A. Dal Corso  v.6.2.2
     Shape of augmentation charge: PSQ
     Using radial grid of 1187 points,  6 beta functions with: 
                l(1) =   0
                l(2) =   0
                l(3) =   1
                l(4) =   1
                l(5) =   2
                l(6) =   2
     Q(r) pseudized with 0 coefficients 


     PseudoPot. # 3 for Mn read from file:
     ./../../../pseudos/Mn.pbe-spn-kjpaw_psl.0.3.1.UPF
     MD5 check sum: ba19e6d7ccbc12830efad05ba8577d9c
     Pseudo is Projector augmented-wave + core cor, Zval = 15.0
     Generated using &quot;atomic&quot; code by A. Dal Corso  v.6.2.2
     Shape of augmentation charge: PSQ
     Using radial grid of 1187 points,  6 beta functions with: 
                l(1) =   0
                l(2) =   0
                l(3) =   1
                l(4) =   1
                l(5) =   2
                l(6) =   2
     Q(r) pseudized with 0 coefficients 


     PseudoPot. # 4 for Mn read from file:
     ./../../../pseudos/Mn.pbe-spn-kjpaw_psl.0.3.1.UPF
     MD5 check sum: ba19e6d7ccbc12830efad05ba8577d9c
     Pseudo is Projector augmented-wave + core cor, Zval = 15.0
     Generated using &quot;atomic&quot; code by A. Dal Corso  v.6.2.2
     Shape of augmentation charge: PSQ
     Using radial grid of 1187 points,  6 beta functions with: 
                l(1) =   0
                l(2) =   0
                l(3) =   1
                l(4) =   1
                l(5) =   2
                l(6) =   2
     Q(r) pseudized with 0 coefficients 


     PseudoPot. # 5 for S  read from file:
     ./../../../pseudos/S.pbe-n-kjpaw_psl.1.0.0.UPF
     MD5 check sum: fb45dfebcf3e72a4e1bd4a866ec2e262
     Pseudo is Projector augmented-wave + core cor, Zval =  6.0
     Generated using &quot;atomic&quot; code by A. Dal Corso  v.6.3
     Shape of augmentation charge: PSQ
     Using radial grid of 1151 points,  6 beta functions with: 
                l(1) =   0
                l(2) =   0
                l(3) =   1
                l(4) =   1
                l(5) =   2
                l(6) =   2
     Q(r) pseudized with 0 coefficients 


     atomic species   valence    mass     pseudopotential
     Mn1              15.00    54.93800     Mn( 1.00)
     Mn2              15.00    54.93800     Mn( 1.00)
     Mn3              15.00    54.93800     Mn( 1.00)
     Mn4              15.00    54.93800     Mn( 1.00)
     S                 6.00    32.06500     S ( 1.00)

     Starting magnetic structure 
     atomic species   magnetization
     Mn1             0.200
     Mn2             0.200
     Mn3             0.200
     Mn4             0.200
     S               0.000

     No symmetry found


                                    s                        frac. trans.

      isym =  1     identity                                     

 cryst.   s( 1) = (     1          0          0      )
                  (     0          1          0      )
                  (     0          0          1      )

 cart.    s( 1) = (  1.0000000  0.0000000  0.0000000 )
                  (  0.0000000  1.0000000  0.0000000 )
                  (  0.0000000  0.0000000  1.0000000 )


   Cartesian axes

     site n.     atom                  positions (alat units)
         1        Mn1    tau(   1) = (   0.7500000   0.4330127   0.3061862  )
         2        Mn2    tau(   2) = (   0.9999999   0.8660254   0.3061862  )
         3        Mn3    tau(   3) = (   1.2500000   0.4330127   0.3061862  )
         4        Mn4    tau(   4) = (   1.4999999   0.8660254   0.3061862  )
         5        S      tau(   5) = (   0.0000000   0.0000000   0.0000000  )
         6        S      tau(   6) = (   0.2500000   0.4330127   0.0000000  )
         7        S      tau(   7) = (   0.5000000   0.0000000   0.0000000  )
         8        S      tau(   8) = (   0.7500000   0.4330127   0.0000000  )

   Crystallographic axes

     site n.     atom                  positions (cryst. coord.)
         1        Mn1    tau(   1) = (  0.3750000  0.3750000  0.7500000  )
         2        Mn2    tau(   2) = (  0.3750000  0.8750000  0.7500000  )
         3        Mn3    tau(   3) = (  0.8750000  0.3750000  0.7500000  )
         4        Mn4    tau(   4) = (  0.8750000  0.8750000  0.7500000  )
         5        S      tau(   5) = (  0.0000000  0.0000000  0.0000000  )
         6        S      tau(   6) = (  0.0000000  0.5000000  0.0000000  )
         7        S      tau(   7) = (  0.5000000  0.0000000  0.0000000  )
         8        S      tau(   8) = (  0.5000000  0.5000000  0.0000000  )

     number of k points=    23  Gaussian smearing, width (Ry)=  0.0100
                       cart. coord. in units 2pi/alat
        k(    1) = (   0.0000000   0.0000000   0.0000000), wk =   0.0222222
        k(    2) = (   0.0000000   0.0000000   0.4898979), wk =   0.0444444
        k(    3) = (   0.0000000   0.0000000   0.9797958), wk =   0.0444444
        k(    4) = (   0.0000000   0.3849002  -0.1360827), wk =   0.0444444
        k(    5) = (   0.0000000   0.3849002   0.3538152), wk =   0.0444444
        k(    6) = (   0.0000000   0.3849002   0.8437131), wk =   0.0444444
        k(    7) = (   0.0000000   0.3849002  -1.1158786), wk =   0.0444444
        k(    8) = (   0.0000000   0.3849002  -0.6259807), wk =   0.0444444
        k(    9) = (   0.3333333   0.1924501  -0.2721655), wk =   0.0444444
        k(   10) = (   0.3333333   0.1924501   0.2177324), wk =   0.0444444
        k(   11) = (   0.3333333   0.1924501   0.7076304), wk =   0.0444444
        k(   12) = (   0.3333333   0.1924501  -1.2519613), wk =   0.0444444
        k(   13) = (   0.3333333   0.1924501  -0.7620634), wk =   0.0444444
        k(   14) = (   0.3333333  -0.5773502   0.0000000), wk =   0.0444444
        k(   15) = (   0.3333333  -0.5773502   0.4898979), wk =   0.0444444
        k(   16) = (   0.3333333  -0.5773502   0.9797959), wk =   0.0444444
        k(   17) = (  -0.3333333   0.1924501   0.1360827), wk =   0.0444444
        k(   18) = (  -0.3333333   0.1924501  -0.3538152), wk =   0.0444444
        k(   19) = (  -0.3333333   0.1924501  -0.8437131), wk =   0.0444444
        k(   20) = (  -0.3333333   0.1924501   1.1158786), wk =   0.0444444
        k(   21) = (  -0.3333333   0.1924501   0.6259807), wk =   0.0444444
        k(   22) = (   0.3333333  -0.5773502  -0.4898979), wk =   0.0444444
        k(   23) = (   0.3333333  -0.5773502  -0.9797958), wk =   0.0444444

                       cryst. coord.
        k(    1) = (   0.0000000   0.0000000   0.0000000), wk =   0.0222222
        k(    2) = (   0.0000000   0.0000000   0.2000000), wk =   0.0444444
        k(    3) = (   0.0000000   0.0000000   0.4000000), wk =   0.0444444
        k(    4) = (   0.0000000   0.3333333   0.0000000), wk =   0.0444444
        k(    5) = (   0.0000000   0.3333333   0.2000000), wk =   0.0444444
        k(    6) = (   0.0000000   0.3333333   0.4000000), wk =   0.0444444
        k(    7) = (   0.0000000   0.3333333  -0.4000000), wk =   0.0444444
        k(    8) = (   0.0000000   0.3333333  -0.2000000), wk =   0.0444444
        k(    9) = (   0.3333333   0.3333333   0.0000000), wk =   0.0444444
        k(   10) = (   0.3333333   0.3333333   0.2000000), wk =   0.0444444
        k(   11) = (   0.3333333   0.3333333   0.4000000), wk =   0.0444444
        k(   12) = (   0.3333333   0.3333333  -0.4000000), wk =   0.0444444
        k(   13) = (   0.3333333   0.3333333  -0.2000000), wk =   0.0444444
        k(   14) = (   0.3333333  -0.3333333   0.0000000), wk =   0.0444444
        k(   15) = (   0.3333333  -0.3333333   0.2000000), wk =   0.0444444
        k(   16) = (   0.3333333  -0.3333333   0.4000000), wk =   0.0444444
        k(   17) = (  -0.3333333   0.0000000  -0.0000000), wk =   0.0444444
        k(   18) = (  -0.3333333   0.0000000  -0.2000000), wk =   0.0444444
        k(   19) = (  -0.3333333   0.0000000  -0.4000000), wk =   0.0444444
        k(   20) = (  -0.3333333   0.0000000   0.4000000), wk =   0.0444444
        k(   21) = (  -0.3333333   0.0000000   0.2000000), wk =   0.0444444
        k(   22) = (   0.3333333  -0.3333333  -0.2000000), wk =   0.0444444
        k(   23) = (   0.3333333  -0.3333333  -0.4000000), wk =   0.0444444

     Dense  grid:    35405 G-vectors     FFT dimensions: (  60,  60,  30)

     Smooth grid:    25365 G-vectors     FFT dimensions: (  54,  54,  25)

     Dynamical RAM for                 wfc:       0.40 MB

     Dynamical RAM for     wfc (w. buffer):      18.93 MB

     Dynamical RAM for           str. fact:       0.45 MB

     Dynamical RAM for           local pot:       0.00 MB

     Dynamical RAM for          nlocal pot:       1.16 MB

     Dynamical RAM for                qrad:       4.92 MB

     Dynamical RAM for          rho,v,vnew:       1.36 MB

     Dynamical RAM for               rhoin:       0.45 MB

     Dynamical RAM for            rho*nmix:       2.88 MB

     Dynamical RAM for           G-vectors:       0.37 MB

     Dynamical RAM for          h,s,v(r/c):       0.46 MB

     Dynamical RAM for          <psi|beta>:       0.11 MB

     Dynamical RAM for                 psi:       0.81 MB

     Dynamical RAM for                hpsi:       0.81 MB

     Dynamical RAM for                spsi:       0.81 MB

     Dynamical RAM for      wfcinit/wfcrot:       0.97 MB

     Dynamical RAM for           addusdens:      17.20 MB

     Dynamical RAM for          addusforce:      17.77 MB

     Estimated static dynamical RAM per process >      29.02 MB

     Estimated max dynamical RAM per process >      49.67 MB

     Estimated total dynamical RAM >     298.02 MB

     Check: negative core charge=   -0.000237
     Generating pointlists ...
     new r_m :   0.1263 (alat units)  1.8676 (a.u.) for type    1
     new r_m :   0.1263 (alat units)  1.8676 (a.u.) for type    2
     new r_m :   0.1263 (alat units)  1.8676 (a.u.) for type    3
     new r_m :   0.1263 (alat units)  1.8676 (a.u.) for type    4
     new r_m :   0.1263 (alat units)  1.8676 (a.u.) for type    5

     Initial potential from superposition of free atoms

     starting charge      83.9979, renormalised to      84.0000
     Starting wfcs are   56 randomized atomic wfcs
     Checking if some PAW data can be deallocated... 
       PAW data deallocated on    5 nodes for type:  1
       PAW data deallocated on    5 nodes for type:  2
       PAW data deallocated on    5 nodes for type:  3
       PAW data deallocated on    5 nodes for type:  4
       PAW data deallocated on    2 nodes for type:  5

     total cpu time spent up to now is        4.0 secs

     Self-consistent Calculation

     iteration #  1     ecut=    30.00 Ry     beta= 0.70
     Davidson diagonalization with overlap

---- Real-time Memory Report at c_bands before calling an iterative solver
            68 MiB given to the printing process from OS
             0 MiB allocation reported by mallinfo(arena+hblkhd)
          1858 MiB available memory on the node where the printing process lives
------------------
     ethr =  1.00E-02,  avg # of iterations =  2.2

     Threshold (ethr) on eigenvalues was too large:
     Diagonalizing with lowered threshold

     Davidson diagonalization with overlap

---- Real-time Memory Report at c_bands before calling an iterative solver
            84 MiB given to the printing process from OS
             0 MiB allocation reported by mallinfo(arena+hblkhd)
          1766 MiB available memory on the node where the printing process lives
------------------
     ethr =  2.91E-04,  avg # of iterations =  4.0

     total cpu time spent up to now is       19.8 secs

     total energy              =   -1410.90826822 Ry
     estimated scf accuracy    <       0.20261047 Ry

     total magnetization       =    15.32 Bohr mag/cell
     absolute magnetization    =    15.32 Bohr mag/cell

     iteration #  2     ecut=    30.00 Ry     beta= 0.70
     Davidson diagonalization with overlap

---- Real-time Memory Report at c_bands before calling an iterative solver
            86 MiB given to the printing process from OS
             0 MiB allocation reported by mallinfo(arena+hblkhd)
          1748 MiB available memory on the node where the printing process lives
------------------
     ethr =  2.41E-04,  avg # of iterations =  2.3

     total cpu time spent up to now is       27.7 secs

     total energy              =   -1410.95759127 Ry
     estimated scf accuracy    <       0.02310332 Ry

     total magnetization       =    15.87 Bohr mag/cell
     absolute magnetization    =    15.87 Bohr mag/cell

     iteration #  3     ecut=    30.00 Ry     beta= 0.70
     Davidson diagonalization with overlap

---- Real-time Memory Report at c_bands before calling an iterative solver
            87 MiB given to the printing process from OS
             0 MiB allocation reported by mallinfo(arena+hblkhd)
          1745 MiB available memory on the node where the printing process lives
------------------
     ethr =  2.75E-05,  avg # of iterations =  8.2

     total cpu time spent up to now is       39.3 secs

     total energy              =   -1410.93527298 Ry
     estimated scf accuracy    <       0.29888358 Ry

     total magnetization       =    15.95 Bohr mag/cell
     absolute magnetization    =    16.00 Bohr mag/cell

     iteration #  4     ecut=    30.00 Ry     beta= 0.70
     Davidson diagonalization with overlap

---- Real-time Memory Report at c_bands before calling an iterative solver
            87 MiB given to the printing process from OS
             0 MiB allocation reported by mallinfo(arena+hblkhd)
          1737 MiB available memory on the node where the printing process lives
------------------
     c_bands:  1 eigenvalues not converged
     ethr =  2.75E-05,  avg # of iterations = 10.8

     total cpu time spent up to now is       51.5 secs

     total energy              =   -1410.95759900 Ry
     estimated scf accuracy    <       0.22468775 Ry

     total magnetization       =    15.95 Bohr mag/cell
     absolute magnetization    =    16.01 Bohr mag/cell

     iteration #  5     ecut=    30.00 Ry     beta= 0.70
     Davidson diagonalization with overlap

---- Real-time Memory Report at c_bands before calling an iterative solver
            87 MiB given to the printing process from OS
             0 MiB allocation reported by mallinfo(arena+hblkhd)
          1733 MiB available memory on the node where the printing process lives
------------------
     ethr =  2.75E-05,  avg # of iterations =  7.3

     total cpu time spent up to now is       61.6 secs

     total energy              =   -1410.96537954 Ry
     estimated scf accuracy    <       0.02671686 Ry

     total magnetization       =    15.96 Bohr mag/cell
     absolute magnetization    =    16.00 Bohr mag/cell

     iteration #  6     ecut=    30.00 Ry     beta= 0.70
     Davidson diagonalization with overlap

---- Real-time Memory Report at c_bands before calling an iterative solver
            88 MiB given to the printing process from OS
             0 MiB allocation reported by mallinfo(arena+hblkhd)
          1729 MiB available memory on the node where the printing process lives
------------------
     ethr =  2.75E-05,  avg # of iterations =  8.6

     total cpu time spent up to now is       71.5 secs

     total energy              =   -1410.96373615 Ry
     estimated scf accuracy    <       0.13417958 Ry

     total magnetization       =    15.96 Bohr mag/cell
     absolute magnetization    =    16.03 Bohr mag/cell

     iteration #  7     ecut=    30.00 Ry     beta= 0.70
     Davidson diagonalization with overlap

---- Real-time Memory Report at c_bands before calling an iterative solver
            88 MiB given to the printing process from OS
             0 MiB allocation reported by mallinfo(arena+hblkhd)
          1727 MiB available memory on the node where the printing process lives
------------------
     ethr =  2.75E-05,  avg # of iterations =  6.1

     total cpu time spent up to now is       80.1 secs

     total energy              =   -1410.96974175 Ry
     estimated scf accuracy    <       0.00741640 Ry

     total magnetization       =    15.96 Bohr mag/cell
     absolute magnetization    =    16.02 Bohr mag/cell

     iteration #  8     ecut=    30.00 Ry     beta= 0.70
     Davidson diagonalization with overlap

---- Real-time Memory Report at c_bands before calling an iterative solver
            88 MiB given to the printing process from OS
             0 MiB allocation reported by mallinfo(arena+hblkhd)
          1722 MiB available memory on the node where the printing process lives
------------------
     ethr =  8.83E-06,  avg # of iterations =  6.3

     total cpu time spent up to now is       88.4 secs

     total energy              =   -1410.97074054 Ry
     estimated scf accuracy    <       0.00403873 Ry

     total magnetization       =    15.96 Bohr mag/cell
     absolute magnetization    =    16.02 Bohr mag/cell

     iteration #  9     ecut=    30.00 Ry     beta= 0.70
     Davidson diagonalization with overlap

---- Real-time Memory Report at c_bands before calling an iterative solver
            89 MiB given to the printing process from OS
             0 MiB allocation reported by mallinfo(arena+hblkhd)
          1719 MiB available memory on the node where the printing process lives
------------------
     ethr =  4.81E-06,  avg # of iterations =  1.6

     total cpu time spent up to now is       95.1 secs

     total energy              =   -1410.97088275 Ry
     estimated scf accuracy    <       0.00059569 Ry

     total magnetization       =    15.96 Bohr mag/cell
     absolute magnetization    =    16.03 Bohr mag/cell

     iteration # 10     ecut=    30.00 Ry     beta= 0.70
     Davidson diagonalization with overlap

---- Real-time Memory Report at c_bands before calling an iterative solver
            89 MiB given to the printing process from OS
             0 MiB allocation reported by mallinfo(arena+hblkhd)
          1717 MiB available memory on the node where the printing process lives
------------------
     ethr =  7.09E-07,  avg # of iterations =  7.9

     total cpu time spent up to now is      104.0 secs

     total energy              =   -1410.97102107 Ry
     estimated scf accuracy    <       0.00006792 Ry

     total magnetization       =    15.96 Bohr mag/cell
     absolute magnetization    =    16.04 Bohr mag/cell

     iteration # 11     ecut=    30.00 Ry     beta= 0.70
     Davidson diagonalization with overlap

---- Real-time Memory Report at c_bands before calling an iterative solver
            89 MiB given to the printing process from OS
             0 MiB allocation reported by mallinfo(arena+hblkhd)
          1717 MiB available memory on the node where the printing process lives
------------------
     ethr =  8.09E-08,  avg # of iterations =  4.8

     total cpu time spent up to now is      112.4 secs

     total energy              =   -1410.97103087 Ry
     estimated scf accuracy    <       0.00002718 Ry

     total magnetization       =    15.96 Bohr mag/cell
     absolute magnetization    =    16.04 Bohr mag/cell

     iteration # 12     ecut=    30.00 Ry     beta= 0.70
     Davidson diagonalization with overlap

---- Real-time Memory Report at c_bands before calling an iterative solver
            89 MiB given to the printing process from OS
             0 MiB allocation reported by mallinfo(arena+hblkhd)
          1721 MiB available memory on the node where the printing process lives
------------------
     ethr =  3.24E-08,  avg # of iterations =  2.1

     total cpu time spent up to now is      119.5 secs

     total energy              =   -1410.97103314 Ry
     estimated scf accuracy    <       0.00000664 Ry

     total magnetization       =    15.96 Bohr mag/cell
     absolute magnetization    =    16.04 Bohr mag/cell

     iteration # 13     ecut=    30.00 Ry     beta= 0.70
     Davidson diagonalization with overlap

---- Real-time Memory Report at c_bands before calling an iterative solver
            89 MiB given to the printing process from OS
             0 MiB allocation reported by mallinfo(arena+hblkhd)
          1721 MiB available memory on the node where the printing process lives
------------------
     ethr =  7.91E-09,  avg # of iterations =  6.9

     total cpu time spent up to now is      128.2 secs

     total energy              =   -1410.97103467 Ry
     estimated scf accuracy    <       0.00000554 Ry

     total magnetization       =    15.96 Bohr mag/cell
     absolute magnetization    =    16.04 Bohr mag/cell

     iteration # 14     ecut=    30.00 Ry     beta= 0.70
     Davidson diagonalization with overlap

---- Real-time Memory Report at c_bands before calling an iterative solver
            89 MiB given to the printing process from OS
             0 MiB allocation reported by mallinfo(arena+hblkhd)
          1723 MiB available memory on the node where the printing process lives
------------------
     ethr =  6.59E-09,  avg # of iterations =  1.0

     total cpu time spent up to now is      134.6 secs

     total energy              =   -1410.97103469 Ry
     estimated scf accuracy    <       0.00000287 Ry

     total magnetization       =    15.96 Bohr mag/cell
     absolute magnetization    =    16.04 Bohr mag/cell

     iteration # 15     ecut=    30.00 Ry     beta= 0.70
     Davidson diagonalization with overlap

---- Real-time Memory Report at c_bands before calling an iterative solver
            89 MiB given to the printing process from OS
             0 MiB allocation reported by mallinfo(arena+hblkhd)
          1722 MiB available memory on the node where the printing process lives
------------------
     ethr =  3.42E-09,  avg # of iterations =  2.7

     total cpu time spent up to now is      142.5 secs

     total energy              =   -1410.97103492 Ry
     estimated scf accuracy    <       0.00000060 Ry

     total magnetization       =    15.96 Bohr mag/cell
     absolute magnetization    =    16.04 Bohr mag/cell

     iteration # 16     ecut=    30.00 Ry     beta= 0.70
     Davidson diagonalization with overlap

---- Real-time Memory Report at c_bands before calling an iterative solver
            89 MiB given to the printing process from OS
             0 MiB allocation reported by mallinfo(arena+hblkhd)
          1710 MiB available memory on the node where the printing process lives
------------------
     ethr =  7.16E-10,  avg # of iterations =  6.7

     total cpu time spent up to now is      151.6 secs

     total energy              =   -1410.97103510 Ry
     estimated scf accuracy    <       0.00000108 Ry

     total magnetization       =    15.96 Bohr mag/cell
     absolute magnetization    =    16.04 Bohr mag/cell

     iteration # 17     ecut=    30.00 Ry     beta= 0.70
     Davidson diagonalization with overlap

---- Real-time Memory Report at c_bands before calling an iterative solver
            89 MiB given to the printing process from OS
             0 MiB allocation reported by mallinfo(arena+hblkhd)
          1725 MiB available memory on the node where the printing process lives
------------------
     ethr =  7.16E-10,  avg # of iterations =  5.5

     total cpu time spent up to now is      159.6 secs

     total energy              =   -1410.97103511 Ry
     estimated scf accuracy    <       0.00000172 Ry

     total magnetization       =    15.96 Bohr mag/cell
     absolute magnetization    =    16.04 Bohr mag/cell

     iteration # 18     ecut=    30.00 Ry     beta= 0.70
     Davidson diagonalization with overlap

---- Real-time Memory Report at c_bands before calling an iterative solver
            89 MiB given to the printing process from OS
             0 MiB allocation reported by mallinfo(arena+hblkhd)
          1715 MiB available memory on the node where the printing process lives
------------------
     ethr =  7.16E-10,  avg # of iterations =  4.0

     total cpu time spent up to now is      166.9 secs

     total energy              =   -1410.97103515 Ry
     estimated scf accuracy    <       0.00000044 Ry

     total magnetization       =    15.96 Bohr mag/cell
     absolute magnetization    =    16.04 Bohr mag/cell

     iteration # 19     ecut=    30.00 Ry     beta= 0.70
     Davidson diagonalization with overlap

---- Real-time Memory Report at c_bands before calling an iterative solver
            89 MiB given to the printing process from OS
             0 MiB allocation reported by mallinfo(arena+hblkhd)
          1717 MiB available memory on the node where the printing process lives
------------------
     ethr =  5.22E-10,  avg # of iterations =  2.3

     total cpu time spent up to now is      173.9 secs

     total energy              =   -1410.97103517 Ry
     estimated scf accuracy    <       0.00000019 Ry

     total magnetization       =    15.96 Bohr mag/cell
     absolute magnetization    =    16.04 Bohr mag/cell

     iteration # 20     ecut=    30.00 Ry     beta= 0.70
     Davidson diagonalization with overlap

---- Real-time Memory Report at c_bands before calling an iterative solver
            89 MiB given to the printing process from OS
             0 MiB allocation reported by mallinfo(arena+hblkhd)
          1714 MiB available memory on the node where the printing process lives
------------------
     c_bands:  1 eigenvalues not converged
     ethr =  2.26E-10,  avg # of iterations =  5.3

     total cpu time spent up to now is      181.7 secs

     total energy              =   -1410.97103521 Ry
     estimated scf accuracy    <       0.00000014 Ry

     total magnetization       =    15.96 Bohr mag/cell
     absolute magnetization    =    16.04 Bohr mag/cell

     iteration # 21     ecut=    30.00 Ry     beta= 0.70
     Davidson diagonalization with overlap

---- Real-time Memory Report at c_bands before calling an iterative solver
            89 MiB given to the printing process from OS
             0 MiB allocation reported by mallinfo(arena+hblkhd)
          1720 MiB available memory on the node where the printing process lives
------------------
     ethr =  1.65E-10,  avg # of iterations =  1.1

     total cpu time spent up to now is      188.0 secs

     total energy              =   -1410.97103520 Ry
     estimated scf accuracy    <       0.00000012 Ry

     total magnetization       =    15.96 Bohr mag/cell
     absolute magnetization    =    16.04 Bohr mag/cell

     iteration # 22     ecut=    30.00 Ry     beta= 0.70
     Davidson diagonalization with overlap

---- Real-time Memory Report at c_bands before calling an iterative solver
            89 MiB given to the printing process from OS
             0 MiB allocation reported by mallinfo(arena+hblkhd)
          1718 MiB available memory on the node where the printing process lives
------------------
     ethr =  1.47E-10,  avg # of iterations =  4.5

     total cpu time spent up to now is      195.6 secs

     total energy              =   -1410.97103521 Ry
     estimated scf accuracy    <       0.00000023 Ry

     total magnetization       =    15.96 Bohr mag/cell
     absolute magnetization    =    16.04 Bohr mag/cell

     iteration # 23     ecut=    30.00 Ry     beta= 0.70
     Davidson diagonalization with overlap

---- Real-time Memory Report at c_bands before calling an iterative solver
            89 MiB given to the printing process from OS
             0 MiB allocation reported by mallinfo(arena+hblkhd)
          1720 MiB available memory on the node where the printing process lives
------------------
     ethr =  1.47E-10,  avg # of iterations =  1.2

     total cpu time spent up to now is      202.1 secs

     total energy              =   -1410.97103521 Ry
     estimated scf accuracy    <       0.00000012 Ry

     total magnetization       =    15.96 Bohr mag/cell
     absolute magnetization    =    16.04 Bohr mag/cell

     iteration # 24     ecut=    30.00 Ry     beta= 0.70
     Davidson diagonalization with overlap

---- Real-time Memory Report at c_bands before calling an iterative solver
            89 MiB given to the printing process from OS
             0 MiB allocation reported by mallinfo(arena+hblkhd)
          1722 MiB available memory on the node where the printing process lives
------------------
     ethr =  1.41E-10,  avg # of iterations =  1.1

     total cpu time spent up to now is      208.6 secs

     total energy              =   -1410.97103521 Ry
     estimated scf accuracy    <       0.00000009 Ry

     total magnetization       =    15.96 Bohr mag/cell
     absolute magnetization    =    16.04 Bohr mag/cell

     iteration # 25     ecut=    30.00 Ry     beta= 0.70
     Davidson diagonalization with overlap

---- Real-time Memory Report at c_bands before calling an iterative solver
            89 MiB given to the printing process from OS
             0 MiB allocation reported by mallinfo(arena+hblkhd)
          1724 MiB available memory on the node where the printing process lives
------------------
     ethr =  1.04E-10,  avg # of iterations =  2.1

     total cpu time spent up to now is      215.2 secs

     total energy              =   -1410.97103521 Ry
     estimated scf accuracy    <       0.00000005 Ry

     total magnetization       =    15.96 Bohr mag/cell
     absolute magnetization    =    16.04 Bohr mag/cell

     iteration # 26     ecut=    30.00 Ry     beta= 0.70
     Davidson diagonalization with overlap

---- Real-time Memory Report at c_bands before calling an iterative solver
            89 MiB given to the printing process from OS
             0 MiB allocation reported by mallinfo(arena+hblkhd)
          1724 MiB available memory on the node where the printing process lives
------------------
     ethr =  5.72E-11,  avg # of iterations =  3.1

     total cpu time spent up to now is      222.4 secs

     total energy              =   -1410.97103521 Ry
     estimated scf accuracy    <       0.00000003 Ry

     total magnetization       =    15.96 Bohr mag/cell
     absolute magnetization    =    16.04 Bohr mag/cell

     iteration # 27     ecut=    30.00 Ry     beta= 0.70
     Davidson diagonalization with overlap

---- Real-time Memory Report at c_bands before calling an iterative solver
            89 MiB given to the printing process from OS
             0 MiB allocation reported by mallinfo(arena+hblkhd)
          1722 MiB available memory on the node where the printing process lives
------------------
     ethr =  3.37E-11,  avg # of iterations =  2.7

     total cpu time spent up to now is      229.3 secs

     total energy              =   -1410.97103522 Ry
     estimated scf accuracy    <       0.00000003 Ry

     total magnetization       =    15.96 Bohr mag/cell
     absolute magnetization    =    16.04 Bohr mag/cell

     iteration # 28     ecut=    30.00 Ry     beta= 0.70
     Davidson diagonalization with overlap

---- Real-time Memory Report at c_bands before calling an iterative solver
            89 MiB given to the printing process from OS
             0 MiB allocation reported by mallinfo(arena+hblkhd)
          1724 MiB available memory on the node where the printing process lives
------------------
     ethr =  3.03E-11,  avg # of iterations =  2.5

     total cpu time spent up to now is      236.4 secs

     total energy              =   -1410.97103522 Ry
     estimated scf accuracy    <          3.1E-09 Ry

     total magnetization       =    15.96 Bohr mag/cell
     absolute magnetization    =    16.04 Bohr mag/cell

     iteration # 29     ecut=    30.00 Ry     beta= 0.70
     Davidson diagonalization with overlap

---- Real-time Memory Report at c_bands before calling an iterative solver
            89 MiB given to the printing process from OS
             0 MiB allocation reported by mallinfo(arena+hblkhd)
          1720 MiB available memory on the node where the printing process lives
------------------
     c_bands:  1 eigenvalues not converged
     ethr =  3.73E-12,  avg # of iterations =  8.7

     total cpu time spent up to now is      248.0 secs

     total energy              =   -1410.97103522 Ry
     estimated scf accuracy    <          1.6E-09 Ry

     total magnetization       =    15.96 Bohr mag/cell
     absolute magnetization    =    16.04 Bohr mag/cell

     iteration # 30     ecut=    30.00 Ry     beta= 0.70
     Davidson diagonalization with overlap

---- Real-time Memory Report at c_bands before calling an iterative solver
            89 MiB given to the printing process from OS
             0 MiB allocation reported by mallinfo(arena+hblkhd)
          1718 MiB available memory on the node where the printing process lives
------------------
     c_bands:  1 eigenvalues not converged
     ethr =  1.88E-12,  avg # of iterations =  2.7

     total cpu time spent up to now is      255.3 secs

     total energy              =   -1410.97103522 Ry
     estimated scf accuracy    <          2.5E-09 Ry

     total magnetization       =    15.96 Bohr mag/cell
     absolute magnetization    =    16.04 Bohr mag/cell

     iteration # 31     ecut=    30.00 Ry     beta= 0.70
     Davidson diagonalization with overlap

---- Real-time Memory Report at c_bands before calling an iterative solver
            89 MiB given to the printing process from OS
             0 MiB allocation reported by mallinfo(arena+hblkhd)
          1723 MiB available memory on the node where the printing process lives
------------------
     ethr =  1.88E-12,  avg # of iterations =  1.1

     total cpu time spent up to now is      261.6 secs

     total energy              =   -1410.97103522 Ry
     estimated scf accuracy    <          1.8E-09 Ry

     total magnetization       =    15.96 Bohr mag/cell
     absolute magnetization    =    16.04 Bohr mag/cell

     iteration # 32     ecut=    30.00 Ry     beta= 0.70
     Davidson diagonalization with overlap

---- Real-time Memory Report at c_bands before calling an iterative solver
            89 MiB given to the printing process from OS
             0 MiB allocation reported by mallinfo(arena+hblkhd)
          1719 MiB available memory on the node where the printing process lives
------------------
     ethr =  1.88E-12,  avg # of iterations =  3.8

     total cpu time spent up to now is      269.0 secs

     total energy              =   -1410.97103522 Ry
     estimated scf accuracy    <          1.4E-09 Ry

     total magnetization       =    15.96 Bohr mag/cell
     absolute magnetization    =    16.04 Bohr mag/cell

     iteration # 33     ecut=    30.00 Ry     beta= 0.70
     Davidson diagonalization with overlap

---- Real-time Memory Report at c_bands before calling an iterative solver
            89 MiB given to the printing process from OS
             0 MiB allocation reported by mallinfo(arena+hblkhd)
          1720 MiB available memory on the node where the printing process lives
------------------
     ethr =  1.72E-12,  avg # of iterations =  2.3

     total cpu time spent up to now is      276.0 secs

     total energy              =   -1410.97103522 Ry
     estimated scf accuracy    <          2.1E-10 Ry

     total magnetization       =    15.96 Bohr mag/cell
     absolute magnetization    =    16.04 Bohr mag/cell

     iteration # 34     ecut=    30.00 Ry     beta= 0.70
     Davidson diagonalization with overlap

---- Real-time Memory Report at c_bands before calling an iterative solver
            89 MiB given to the printing process from OS
             0 MiB allocation reported by mallinfo(arena+hblkhd)
          1717 MiB available memory on the node where the printing process lives
------------------
     c_bands:  1 eigenvalues not converged
     ethr =  2.48E-13,  avg # of iterations =  7.6

     total cpu time spent up to now is      286.5 secs

     total energy              =   -1410.97103522 Ry
     estimated scf accuracy    <          7.4E-10 Ry

     total magnetization       =    15.96 Bohr mag/cell
     absolute magnetization    =    16.04 Bohr mag/cell

     iteration # 35     ecut=    30.00 Ry     beta= 0.70
     Davidson diagonalization with overlap

---- Real-time Memory Report at c_bands before calling an iterative solver
            89 MiB given to the printing process from OS
             0 MiB allocation reported by mallinfo(arena+hblkhd)
          1717 MiB available memory on the node where the printing process lives
------------------
     c_bands:  1 eigenvalues not converged
     ethr =  2.48E-13,  avg # of iterations =  2.8

     total cpu time spent up to now is      294.0 secs

     total energy              =   -1410.97103522 Ry
     estimated scf accuracy    <          2.8E-10 Ry

     total magnetization       =    15.96 Bohr mag/cell
     absolute magnetization    =    16.04 Bohr mag/cell

     iteration # 36     ecut=    30.00 Ry     beta= 0.70
     Davidson diagonalization with overlap

---- Real-time Memory Report at c_bands before calling an iterative solver
            89 MiB given to the printing process from OS
             0 MiB allocation reported by mallinfo(arena+hblkhd)
          1720 MiB available memory on the node where the printing process lives
------------------
     c_bands:  1 eigenvalues not converged
     ethr =  2.48E-13,  avg # of iterations =  6.6

     total cpu time spent up to now is      303.2 secs

     total energy              =   -1410.97103522 Ry
     estimated scf accuracy    <          1.4E-09 Ry

     total magnetization       =    15.96 Bohr mag/cell
     absolute magnetization    =    16.04 Bohr mag/cell

     iteration # 37     ecut=    30.00 Ry     beta= 0.70
     Davidson diagonalization with overlap

---- Real-time Memory Report at c_bands before calling an iterative solver
            89 MiB given to the printing process from OS
             0 MiB allocation reported by mallinfo(arena+hblkhd)
          1727 MiB available memory on the node where the printing process lives
------------------
     ethr =  2.48E-13,  avg # of iterations =  2.4

     total cpu time spent up to now is      310.3 secs

     total energy              =   -1410.97103522 Ry
     estimated scf accuracy    <          1.0E-09 Ry

     total magnetization       =    15.96 Bohr mag/cell
     absolute magnetization    =    16.04 Bohr mag/cell

     iteration # 38     ecut=    30.00 Ry     beta= 0.70
     Davidson diagonalization with overlap

---- Real-time Memory Report at c_bands before calling an iterative solver
            89 MiB given to the printing process from OS
             0 MiB allocation reported by mallinfo(arena+hblkhd)
          1723 MiB available memory on the node where the printing process lives
------------------
     ethr =  2.48E-13,  avg # of iterations =  1.7

     total cpu time spent up to now is      317.0 secs

     total energy              =   -1410.97103522 Ry
     estimated scf accuracy    <          1.6E-09 Ry

     total magnetization       =    15.96 Bohr mag/cell
     absolute magnetization    =    16.04 Bohr mag/cell

     iteration # 39     ecut=    30.00 Ry     beta= 0.70
     Davidson diagonalization with overlap

---- Real-time Memory Report at c_bands before calling an iterative solver
            89 MiB given to the printing process from OS
             0 MiB allocation reported by mallinfo(arena+hblkhd)
          1733 MiB available memory on the node where the printing process lives
------------------
     ethr =  2.48E-13,  avg # of iterations =  4.9

     total cpu time spent up to now is      325.6 secs

     total energy              =   -1410.97103522 Ry
     estimated scf accuracy    <          2.7E-09 Ry

     total magnetization       =    15.96 Bohr mag/cell
     absolute magnetization    =    16.04 Bohr mag/cell

     iteration # 40     ecut=    30.00 Ry     beta= 0.70
     Davidson diagonalization with overlap

---- Real-time Memory Report at c_bands before calling an iterative solver
            89 MiB given to the printing process from OS
             0 MiB allocation reported by mallinfo(arena+hblkhd)
          1735 MiB available memory on the node where the printing process lives
------------------
     ethr =  2.48E-13,  avg # of iterations =  1.9

     total cpu time spent up to now is      332.4 secs

     total energy              =   -1410.97103522 Ry
     estimated scf accuracy    <          1.5E-09 Ry

     total magnetization       =    15.96 Bohr mag/cell
     absolute magnetization    =    16.04 Bohr mag/cell

     iteration # 41     ecut=    30.00 Ry     beta= 0.70
     Davidson diagonalization with overlap

---- Real-time Memory Report at c_bands before calling an iterative solver
            89 MiB given to the printing process from OS
             0 MiB allocation reported by mallinfo(arena+hblkhd)
          1735 MiB available memory on the node where the printing process lives
------------------
     ethr =  2.48E-13,  avg # of iterations =  4.5

     total cpu time spent up to now is      340.8 secs

     total energy              =   -1410.97103522 Ry
     estimated scf accuracy    <          6.2E-10 Ry

     total magnetization       =    15.96 Bohr mag/cell
     absolute magnetization    =    16.04 Bohr mag/cell

     iteration # 42     ecut=    30.00 Ry     beta= 0.70
     Davidson diagonalization with overlap

---- Real-time Memory Report at c_bands before calling an iterative solver
            89 MiB given to the printing process from OS
             0 MiB allocation reported by mallinfo(arena+hblkhd)
          1732 MiB available memory on the node where the printing process lives
------------------
     ethr =  2.48E-13,  avg # of iterations =  4.7

     total cpu time spent up to now is      349.2 secs

     total energy              =   -1410.97103522 Ry
     estimated scf accuracy    <          1.1E-10 Ry

     total magnetization       =    15.96 Bohr mag/cell
     absolute magnetization    =    16.04 Bohr mag/cell

     iteration # 43     ecut=    30.00 Ry     beta= 0.70
     Davidson diagonalization with overlap

---- Real-time Memory Report at c_bands before calling an iterative solver
            89 MiB given to the printing process from OS
             0 MiB allocation reported by mallinfo(arena+hblkhd)
          1735 MiB available memory on the node where the printing process lives
------------------
     ethr =  1.34E-13,  avg # of iterations =  3.6

     Magnetic moment per site  (integrated on atomic sphere of radius R)
     atom   1 (R=0.126)  charge= 12.9140  magn=  3.5431
     atom   2 (R=0.126)  charge= 12.9140  magn=  3.5431
     atom   3 (R=0.126)  charge= 12.9140  magn=  3.5431
     atom   4 (R=0.126)  charge= 12.9140  magn=  3.5431
     atom   5 (R=0.126)  charge=  4.1040  magn=  0.0020
     atom   6 (R=0.126)  charge=  4.1040  magn=  0.0020
     atom   7 (R=0.126)  charge=  4.1040  magn=  0.0020
     atom   8 (R=0.126)  charge=  4.1040  magn=  0.0020

     total cpu time spent up to now is      356.6 secs

     End of self-consistent calculation

 ------ SPIN UP ------------


          k = 0.0000 0.0000 0.0000 (  3203 PWs)   bands (ev):

   -74.2417 -74.2411 -74.2411 -74.2409 -42.9742 -42.9741 -42.9728 -42.9718
   -42.9659 -42.9641 -42.9640 -42.9631 -42.9555 -42.9547 -42.9547 -42.9545
    -6.3579  -5.6609  -5.6608  -5.4355   1.8073   1.9537   1.9538   2.9453
     2.9501   2.9524   3.1630   3.1636   3.1695   3.1700   3.5731   3.5747
     4.8472   4.8499   4.8796   5.0281   5.0287   5.0356   5.0376   5.1588
     5.3150   5.3176   5.3977   5.9789   5.9816   7.2559   7.2561   7.2636
     7.2648   8.3134

     occupation numbers 
     1.0000   1.0000   1.0000   1.0000   1.0000   1.0000   1.0000   1.0000
     1.0000   1.0000   1.0000   1.0000   1.0000   1.0000   1.0000   1.0000
     1.0000   1.0000   1.0000   1.0000   1.0000   1.0000   1.0000   1.0000
     1.0000   1.0000   1.0000   1.0000   1.0000   1.0000   1.0000   1.0000
     1.0000   1.0000   1.0000   1.0000   1.0000   1.0000   1.0000   1.0000
     1.0000   1.0000   1.0000   1.0000   1.0000   1.0000   1.0000   1.0000
     1.0000   0.0001

          k = 0.0000 0.0000 0.4899 (  3184 PWs)   bands (ev):

   -74.2413 -74.2411 -74.2411 -74.2408 -42.9740 -42.9739 -42.9725 -42.9716
   -42.9652 -42.9642 -42.9642 -42.9635 -42.9558 -42.9555 -42.9554 -42.9548
    -6.1350  -5.5889  -5.5888  -5.5186   2.0859   2.1598   2.1600   2.5764
     3.0084   3.0089   3.0532   3.0547   3.1981   3.2776   3.2781   3.4182
     4.8632   4.8824   4.8833   4.8969   4.8980   5.0370   5.0379   5.1040
     5.3944   5.3968   5.4118   6.2760   6.4460   6.5746   6.5748   6.7971
     6.7983   6.8854

     occupation numbers 
     1.0000   1.0000   1.0000   1.0000   1.0000   1.0000   1.0000   1.0000
     1.0000   1.0000   1.0000   1.0000   1.0000   1.0000   1.0000   1.0000
     1.0000   1.0000   1.0000   1.0000   1.0000   1.0000   1.0000   1.0000
     1.0000   1.0000   1.0000   1.0000   1.0000   1.0000   1.0000   1.0000
     1.0000   1.0000   1.0000   1.0000   1.0000   1.0000   1.0000   1.0000
     1.0000   1.0000   1.0000   1.0000   1.0000   1.0000   1.0000   1.0000
     1.0000   1.0000

          k = 0.0000 0.0000 0.9798 (  3151 PWs)   bands (ev):

   -74.2411 -74.2410 -74.2408 -74.2408 -42.9738 -42.9737 -42.9720 -42.9720
   -42.9647 -42.9642 -42.9640 -42.9640 -42.9566 -42.9561 -42.9561 -42.9557
    -5.7353  -5.6411  -5.4591  -5.4591   1.9000   1.9001   2.0334   2.0431
     3.0968   3.1515   3.1536   3.2019   3.4684   3.4690   3.5316   3.5323
     4.8561   4.8564   4.9844   4.9874   5.0026   5.0464   5.1846   5.1849
     5.3794   5.4113   5.4126   5.5526   6.0572   6.0581   6.1247   6.1263
     7.0299   7.1398

     occupation numbers 
     1.0000   1.0000   1.0000   1.0000   1.0000   1.0000   1.0000   1.0000
     1.0000   1.0000   1.0000   1.0000   1.0000   1.0000   1.0000   1.0000
     1.0000   1.0000   1.0000   1.0000   1.0000   1.0000   1.0000   1.0000
     1.0000   1.0000   1.0000   1.0000   1.0000   1.0000   1.0000   1.0000
     1.0000   1.0000   1.0000   1.0000   1.0000   1.0000   1.0000   1.0000
     1.0000   1.0000   1.0000   1.0000   1.0000   1.0000   1.0000   1.0000
     1.0000   1.0000

          k = 0.0000 0.3849-0.1361 (  3185 PWs)   bands (ev):

   -74.2413 -74.2413 -74.2410 -74.2409 -42.9737 -42.9735 -42.9730 -42.9721
   -42.9655 -42.9646 -42.9639 -42.9631 -42.9553 -42.9549 -42.9547 -42.9542
    -6.1980  -5.8521  -5.6088  -5.4964   2.0195   2.1310   2.1882   2.6790
     3.0285   3.0339   3.0345   3.1171   3.1239   3.2510   3.2931   3.4552
     4.8287   4.8797   4.8836   4.9126   4.9194   4.9306   5.0539   5.1239
     5.4038   5.4089   5.8850   6.1727   6.3168   6.7405   6.9323   7.1818
     7.5295   7.5377

     occupation numbers 
     1.0000   1.0000   1.0000   1.0000   1.0000   1.0000   1.0000   1.0000
     1.0000   1.0000   1.0000   1.0000   1.0000   1.0000   1.0000   1.0000
     1.0000   1.0000   1.0000   1.0000   1.0000   1.0000   1.0000   1.0000
     1.0000   1.0000   1.0000   1.0000   1.0000   1.0000   1.0000   1.0000
     1.0000   1.0000   1.0000   1.0000   1.0000   1.0000   1.0000   1.0000
     1.0000   1.0000   1.0000   1.0000   1.0000   1.0000   1.0000   1.0000
     1.0000   1.0000

          k = 0.0000 0.3849 0.3538 (  3165 PWs)   bands (ev):

   -74.2413 -74.2410 -74.2410 -74.2408 -42.9735 -42.9734 -42.9729 -42.9721
   -42.9652 -42.9643 -42.9639 -42.9633 -42.9557 -42.9554 -42.9552 -42.9550
    -6.1015  -5.6709  -5.6290  -5.4347   2.2585   2.2627   2.2848   2.5312
     2.8920   2.9443   2.9779   3.0770   3.0883   3.2370   3.2608   3.5602
     4.7658   4.8683   4.8890   4.9353   4.9499   5.0250   5.0375   5.0612
     5.2697   5.6080   5.6865   5.7544   6.3170   6.3834   6.4368   7.2346
     7.2491   7.3216

     occupation numbers 
     1.0000   1.0000   1.0000   1.0000   1.0000   1.0000   1.0000   1.0000
     1.0000   1.0000   1.0000   1.0000   1.0000   1.0000   1.0000   1.0000
     1.0000   1.0000   1.0000   1.0000   1.0000   1.0000   1.0000   1.0000
     1.0000   1.0000   1.0000   1.0000   1.0000   1.0000   1.0000   1.0000
     1.0000   1.0000   1.0000   1.0000   1.0000   1.0000   1.0000   1.0000
     1.0000   1.0000   1.0000   1.0000   1.0000   1.0000   1.0000   1.0000
     1.0000   1.0000

          k = 0.0000 0.3849 0.8437 (  3166 PWs)   bands (ev):

   -74.2411 -74.2410 -74.2409 -74.2409 -42.9734 -42.9733 -42.9727 -42.9725
   -42.9645 -42.9644 -42.9642 -42.9638 -42.9567 -42.9563 -42.9561 -42.9559
    -5.7357  -5.5711  -5.5379  -5.4650   2.1162   2.1785   2.2400   2.2749
     2.8705   3.0056   3.1002   3.1452   3.2145   3.3386   3.4010   3.4247
     4.7899   4.8247   4.8316   4.8885   5.0221   5.0313   5.0775   5.0937
     5.3840   5.4314   5.6443   5.7912   5.9552   6.1590   6.2521   6.4934
     6.6578   6.7721

     occupation numbers 
     1.0000   1.0000   1.0000   1.0000   1.0000   1.0000   1.0000   1.0000
     1.0000   1.0000   1.0000   1.0000   1.0000   1.0000   1.0000   1.0000
     1.0000   1.0000   1.0000   1.0000   1.0000   1.0000   1.0000   1.0000
     1.0000   1.0000   1.0000   1.0000   1.0000   1.0000   1.0000   1.0000
     1.0000   1.0000   1.0000   1.0000   1.0000   1.0000   1.0000   1.0000
     1.0000   1.0000   1.0000   1.0000   1.0000   1.0000   1.0000   1.0000
     1.0000   1.0000

          k = 0.0000 0.3849-1.1159 (  3158 PWs)   bands (ev):

   -74.2410 -74.2410 -74.2410 -74.2408 -42.9734 -42.9733 -42.9726 -42.9725
   -42.9647 -42.9642 -42.9639 -42.9639 -42.9565 -42.9564 -42.9560 -42.9559
    -5.6596  -5.6042  -5.5989  -5.4439   1.9708   2.0688   2.1472   2.1678
     2.9677   3.0252   3.2190   3.2211   3.2470   3.3883   3.4124   3.5414
     4.7209   4.8954   4.9180   4.9782   5.0131   5.0589   5.0738   5.1491
     5.3050   5.4226   5.5230   5.8562   5.9409   6.3092   6.3743   6.3917
     6.5388   6.7163

     occupation numbers 
     1.0000   1.0000   1.0000   1.0000   1.0000   1.0000   1.0000   1.0000
     1.0000   1.0000   1.0000   1.0000   1.0000   1.0000   1.0000   1.0000
     1.0000   1.0000   1.0000   1.0000   1.0000   1.0000   1.0000   1.0000
     1.0000   1.0000   1.0000   1.0000   1.0000   1.0000   1.0000   1.0000
     1.0000   1.0000   1.0000   1.0000   1.0000   1.0000   1.0000   1.0000
     1.0000   1.0000   1.0000   1.0000   1.0000   1.0000   1.0000   1.0000
     1.0000   1.0000

          k = 0.0000 0.3849-0.6260 (  3178 PWs)   bands (ev):

   -74.2412 -74.2412 -74.2410 -74.2409 -42.9737 -42.9733 -42.9728 -42.9725
   -42.9648 -42.9646 -42.9641 -42.9636 -42.9556 -42.9554 -42.9553 -42.9550
    -5.9109  -5.8368  -5.6378  -5.4712   2.2384   2.2637   2.3713   2.4551
     2.7279   2.9591   3.0219   3.1430   3.1572   3.2038   3.3156   3.4690
     4.7281   4.8091   4.8312   4.8347   5.0063   5.0331   5.0433   5.0774
     5.4126   5.7914   5.8476   6.1593   6.3018   6.3811   6.5530   6.8102
     6.9881   7.0575

     occupation numbers 
     1.0000   1.0000   1.0000   1.0000   1.0000   1.0000   1.0000   1.0000
     1.0000   1.0000   1.0000   1.0000   1.0000   1.0000   1.0000   1.0000
     1.0000   1.0000   1.0000   1.0000   1.0000   1.0000   1.0000   1.0000
     1.0000   1.0000   1.0000   1.0000   1.0000   1.0000   1.0000   1.0000
     1.0000   1.0000   1.0000   1.0000   1.0000   1.0000   1.0000   1.0000
     1.0000   1.0000   1.0000   1.0000   1.0000   1.0000   1.0000   1.0000
     1.0000   1.0000

          k = 0.3333 0.1925-0.2722 (  3186 PWs)   bands (ev):

   -74.2414 -74.2411 -74.2410 -74.2410 -42.9739 -42.9739 -42.9725 -42.9719
   -42.9652 -42.9642 -42.9641 -42.9635 -42.9552 -42.9547 -42.9547 -42.9546
    -6.1459  -5.6863  -5.6723  -5.6722   2.0255   2.2233   2.2236   2.5950
     2.9700   2.9706   3.0612   3.0628   3.2264   3.2269   3.3510   3.3526
     4.6738   4.7733   4.8913   4.8923   4.9249   5.0542   5.0544   5.0699
     5.6309   5.6327   6.2881   6.5274   6.5289   6.5331   6.5358   7.3398
     7.3401   7.4190

     occupation numbers 
     1.0000   1.0000   1.0000   1.0000   1.0000   1.0000   1.0000   1.0000
     1.0000   1.0000   1.0000   1.0000   1.0000   1.0000   1.0000   1.0000
     1.0000   1.0000   1.0000   1.0000   1.0000   1.0000   1.0000   1.0000
     1.0000   1.0000   1.0000   1.0000   1.0000   1.0000   1.0000   1.0000
     1.0000   1.0000   1.0000   1.0000   1.0000   1.0000   1.0000   1.0000
     1.0000   1.0000   1.0000   1.0000   1.0000   1.0000   1.0000   1.0000
     1.0000   1.0000

          k = 0.3333 0.1925 0.2177 (  3178 PWs)   bands (ev):

   -74.2413 -74.2410 -74.2410 -74.2409 -42.9740 -42.9739 -42.9727 -42.9716
   -42.9655 -42.9641 -42.9640 -42.9631 -42.9557 -42.9554 -42.9553 -42.9551
    -6.1727  -5.5863  -5.5863  -5.4767   2.0742   2.1605   2.1606   2.6406
     2.9938   2.9944   3.0342   3.0382   3.2176   3.2744   3.2751   3.4500
     4.8489   4.8558   4.8973   4.9278   4.9289   5.0346   5.0356   5.0894
     5.3370   5.3760   5.3782   6.1092   6.3456   6.5918   6.5925   6.8925
     6.8940   7.0828

     occupation numbers 
     1.0000   1.0000   1.0000   1.0000   1.0000   1.0000   1.0000   1.0000
     1.0000   1.0000   1.0000   1.0000   1.0000   1.0000   1.0000   1.0000
     1.0000   1.0000   1.0000   1.0000   1.0000   1.0000   1.0000   1.0000
     1.0000   1.0000   1.0000   1.0000   1.0000   1.0000   1.0000   1.0000
     1.0000   1.0000   1.0000   1.0000   1.0000   1.0000   1.0000   1.0000
     1.0000   1.0000   1.0000   1.0000   1.0000   1.0000   1.0000   1.0000
     1.0000   1.0000

          k = 0.3333 0.1925 0.7076 (  3164 PWs)   bands (ev):

   -74.2412 -74.2410 -74.2409 -74.2408 -42.9737 -42.9737 -42.9723 -42.9719
   -42.9647 -42.9641 -42.9641 -42.9640 -42.9567 -42.9562 -42.9562 -42.9561
    -5.8455  -5.5499  -5.4548  -5.4548   2.3285   2.4128   2.4130   2.4566
     2.7050   2.7832   2.7833   3.0069   3.1642   3.3149   3.5062   3.5067
     4.8090   4.8530   4.8530   4.9092   4.9110   5.0248   5.0357   5.0363
     5.3670   5.3676   5.6435   5.7785   5.7789   5.9517   6.1731   6.4791
     6.4798   6.6932

     occupation numbers 
     1.0000   1.0000   1.0000   1.0000   1.0000   1.0000   1.0000   1.0000
     1.0000   1.0000   1.0000   1.0000   1.0000   1.0000   1.0000   1.0000
     1.0000   1.0000   1.0000   1.0000   1.0000   1.0000   1.0000   1.0000
     1.0000   1.0000   1.0000   1.0000   1.0000   1.0000   1.0000   1.0000
     1.0000   1.0000   1.0000   1.0000   1.0000   1.0000   1.0000   1.0000
     1.0000   1.0000   1.0000   1.0000   1.0000   1.0000   1.0000   1.0000
     1.0000   1.0000

          k = 0.3333 0.1925-1.2520 (  3156 PWs)   bands (ev):

   -74.2411 -74.2410 -74.2409 -74.2408 -42.9737 -42.9737 -42.9722 -42.9719
   -42.9651 -42.9641 -42.9640 -42.9637 -42.9564 -42.9562 -42.9562 -42.9561
    -5.7931  -5.5907  -5.4573  -5.4573   2.0363   2.0363   2.1476   2.1563
     2.9822   3.1193   3.1560   3.2506   3.2667   3.2671   3.5147   3.5151
     4.8641   4.8649   4.9066   4.9786   5.0146   5.0176   5.1043   5.1045
     5.3327   5.3341   5.3539   5.7805   5.9546   5.9549   6.2988   6.2997
     6.5883   7.0360

     occupation numbers 
     1.0000   1.0000   1.0000   1.0000   1.0000   1.0000   1.0000   1.0000
     1.0000   1.0000   1.0000   1.0000   1.0000   1.0000   1.0000   1.0000
     1.0000   1.0000   1.0000   1.0000   1.0000   1.0000   1.0000   1.0000
     1.0000   1.0000   1.0000   1.0000   1.0000   1.0000   1.0000   1.0000
     1.0000   1.0000   1.0000   1.0000   1.0000   1.0000   1.0000   1.0000
     1.0000   1.0000   1.0000   1.0000   1.0000   1.0000   1.0000   1.0000
     1.0000   1.0000

          k = 0.3333 0.1925-0.7621 (  3171 PWs)   bands (ev):

   -74.2411 -74.2411 -74.2410 -74.2409 -42.9738 -42.9738 -42.9722 -42.9720
   -42.9648 -42.9641 -42.9641 -42.9640 -42.9555 -42.9554 -42.9553 -42.9551
    -5.8751  -5.7957  -5.5957  -5.5956   2.1691   2.1691   2.2189   2.2850
     3.0764   3.0764   3.1007   3.1158   3.1648   3.1980   3.3793   3.3793
     4.7906   4.8023   4.8230   4.8232   5.0217   5.0631   5.0809   5.0809
     5.7205   5.7212   6.0091   6.1277   6.1284   6.1898   6.7935   6.7935
     7.0373   7.1649

     occupation numbers 
     1.0000   1.0000   1.0000   1.0000   1.0000   1.0000   1.0000   1.0000
     1.0000   1.0000   1.0000   1.0000   1.0000   1.0000   1.0000   1.0000
     1.0000   1.0000   1.0000   1.0000   1.0000   1.0000   1.0000   1.0000
     1.0000   1.0000   1.0000   1.0000   1.0000   1.0000   1.0000   1.0000
     1.0000   1.0000   1.0000   1.0000   1.0000   1.0000   1.0000   1.0000
     1.0000   1.0000   1.0000   1.0000   1.0000   1.0000   1.0000   1.0000
     1.0000   1.0000

          k = 0.3333-0.5774 0.0000 (  3195 PWs)   bands (ev):

   -74.2413 -74.2412 -74.2412 -74.2410 -42.9739 -42.9731 -42.9727 -42.9726
   -42.9650 -42.9645 -42.9644 -42.9636 -42.9551 -42.9549 -42.9548 -42.9544
    -5.9752  -5.8601  -5.8601  -5.4913   2.2677   2.2682   2.4253   2.4422
     2.7535   3.0316   3.1110   3.1230   3.1237   3.1736   3.1741   3.3726
     4.7565   4.7570   4.7846   4.8203   4.9586   4.9968   5.0252   5.0263
     5.6207   5.8267   6.2406   6.2428   6.5830   6.7077   6.9834   7.1116
     7.1121   7.2686

     occupation numbers 
     1.0000   1.0000   1.0000   1.0000   1.0000   1.0000   1.0000   1.0000
     1.0000   1.0000   1.0000   1.0000   1.0000   1.0000   1.0000   1.0000
     1.0000   1.0000   1.0000   1.0000   1.0000   1.0000   1.0000   1.0000
     1.0000   1.0000   1.0000   1.0000   1.0000   1.0000   1.0000   1.0000
     1.0000   1.0000   1.0000   1.0000   1.0000   1.0000   1.0000   1.0000
     1.0000   1.0000   1.0000   1.0000   1.0000   1.0000   1.0000   1.0000
     1.0000   1.0000

          k = 0.3333-0.5774 0.4899 (  3179 PWs)   bands (ev):

   -74.2413 -74.2412 -74.2410 -74.2409 -42.9736 -42.9733 -42.9728 -42.9724
   -42.9652 -42.9646 -42.9637 -42.9635 -42.9555 -42.9554 -42.9553 -42.9552
    -5.9702  -5.8153  -5.5757  -5.4912   2.2319   2.2536   2.4165   2.4271
     2.7480   2.9528   3.0365   3.1158   3.1256   3.2049   3.3756   3.4196
     4.7501   4.8093   4.8416   4.8538   4.9839   5.0309   5.0411   5.0549
     5.4447   5.6660   5.9611   6.0224   6.1481   6.5646   6.6304   6.8397
     6.9315   7.0008

     occupation numbers 
     1.0000   1.0000   1.0000   1.0000   1.0000   1.0000   1.0000   1.0000
     1.0000   1.0000   1.0000   1.0000   1.0000   1.0000   1.0000   1.0000
     1.0000   1.0000   1.0000   1.0000   1.0000   1.0000   1.0000   1.0000
     1.0000   1.0000   1.0000   1.0000   1.0000   1.0000   1.0000   1.0000
     1.0000   1.0000   1.0000   1.0000   1.0000   1.0000   1.0000   1.0000
     1.0000   1.0000   1.0000   1.0000   1.0000   1.0000   1.0000   1.0000
     1.0000   1.0000

          k = 0.3333-0.5774 0.9798 (  3173 PWs)   bands (ev):

   -74.2411 -74.2410 -74.2410 -74.2409 -42.9735 -42.9733 -42.9727 -42.9724
   -42.9647 -42.9642 -42.9641 -42.9638 -42.9565 -42.9564 -42.9563 -42.9559
    -5.7664  -5.5402  -5.5136  -5.4915   2.2078   2.3006   2.3515   2.4314
     2.7465   2.8196   2.8892   3.1136   3.2402   3.3908   3.4013   3.4100
     4.7570   4.7962   4.8659   4.8820   4.9601   5.0058   5.0265   5.0823
     5.4840   5.5279   5.5763   5.8718   5.9539   5.9746   6.0604   6.6734
     6.6778   6.6890

     occupation numbers 
     1.0000   1.0000   1.0000   1.0000   1.0000   1.0000   1.0000   1.0000
     1.0000   1.0000   1.0000   1.0000   1.0000   1.0000   1.0000   1.0000
     1.0000   1.0000   1.0000   1.0000   1.0000   1.0000   1.0000   1.0000
     1.0000   1.0000   1.0000   1.0000   1.0000   1.0000   1.0000   1.0000
     1.0000   1.0000   1.0000   1.0000   1.0000   1.0000   1.0000   1.0000
     1.0000   1.0000   1.0000   1.0000   1.0000   1.0000   1.0000   1.0000
     1.0000   1.0000

          k =-0.3333 0.1925 0.1361 (  3185 PWs)   bands (ev):

   -74.2413 -74.2413 -74.2410 -74.2409 -42.9737 -42.9735 -42.9730 -42.9722
   -42.9655 -42.9646 -42.9639 -42.9631 -42.9553 -42.9549 -42.9547 -42.9542
    -6.1980  -5.8521  -5.6088  -5.4965   2.0194   2.1308   2.1887   2.6801
     3.0282   3.0337   3.0346   3.1175   3.1232   3.2501   3.2931   3.4548
     4.8296   4.8796   4.8832   4.9121   4.9181   4.9311   5.0556   5.1247
     5.4017   5.4072   5.8874   6.1735   6.3164   6.7420   6.9315   7.1838
     7.5294   7.5365

     occupation numbers 
     1.0000   1.0000   1.0000   1.0000   1.0000   1.0000   1.0000   1.0000
     1.0000   1.0000   1.0000   1.0000   1.0000   1.0000   1.0000   1.0000
     1.0000   1.0000   1.0000   1.0000   1.0000   1.0000   1.0000   1.0000
     1.0000   1.0000   1.0000   1.0000   1.0000   1.0000   1.0000   1.0000
     1.0000   1.0000   1.0000   1.0000   1.0000   1.0000   1.0000   1.0000
     1.0000   1.0000   1.0000   1.0000   1.0000   1.0000   1.0000   1.0000
     1.0000   1.0000

          k =-0.3333 0.1925-0.3538 (  3165 PWs)   bands (ev):

   -74.2413 -74.2410 -74.2410 -74.2408 -42.9735 -42.9734 -42.9729 -42.9721
   -42.9652 -42.9643 -42.9640 -42.9633 -42.9558 -42.9554 -42.9552 -42.9549
    -6.1015  -5.6709  -5.6290  -5.4347   2.2585   2.2623   2.2851   2.5312
     2.8924   2.9438   2.9780   3.0781   3.0873   3.2378   3.2601   3.5602
     4.7659   4.8689   4.8883   4.9351   4.9499   5.0250   5.0365   5.0626
     5.2698   5.6098   5.6843   5.7545   6.3176   6.3834   6.4363   7.2334
     7.2486   7.3228

     occupation numbers 
     1.0000   1.0000   1.0000   1.0000   1.0000   1.0000   1.0000   1.0000
     1.0000   1.0000   1.0000   1.0000   1.0000   1.0000   1.0000   1.0000
     1.0000   1.0000   1.0000   1.0000   1.0000   1.0000   1.0000   1.0000
     1.0000   1.0000   1.0000   1.0000   1.0000   1.0000   1.0000   1.0000
     1.0000   1.0000   1.0000   1.0000   1.0000   1.0000   1.0000   1.0000
     1.0000   1.0000   1.0000   1.0000   1.0000   1.0000   1.0000   1.0000
     1.0000   1.0000

          k =-0.3333 0.1925-0.8437 (  3166 PWs)   bands (ev):

   -74.2411 -74.2410 -74.2409 -74.2409 -42.9734 -42.9733 -42.9727 -42.9724
   -42.9645 -42.9644 -42.9642 -42.9638 -42.9567 -42.9563 -42.9561 -42.9559
    -5.7357  -5.5711  -5.5379  -5.4650   2.1161   2.1783   2.2402   2.2749
     2.8712   3.0060   3.1013   3.1451   3.2133   3.3377   3.4011   3.4239
     4.7898   4.8250   4.8318   4.8877   5.0218   5.0318   5.0778   5.0945
     5.3847   5.4328   5.6440   5.7912   5.9557   6.1580   6.2530   6.4919
     6.6583   6.7708

     occupation numbers 
     1.0000   1.0000   1.0000   1.0000   1.0000   1.0000   1.0000   1.0000
     1.0000   1.0000   1.0000   1.0000   1.0000   1.0000   1.0000   1.0000
     1.0000   1.0000   1.0000   1.0000   1.0000   1.0000   1.0000   1.0000
     1.0000   1.0000   1.0000   1.0000   1.0000   1.0000   1.0000   1.0000
     1.0000   1.0000   1.0000   1.0000   1.0000   1.0000   1.0000   1.0000
     1.0000   1.0000   1.0000   1.0000   1.0000   1.0000   1.0000   1.0000
     1.0000   1.0000

          k =-0.3333 0.1925 1.1159 (  3158 PWs)   bands (ev):

   -74.2410 -74.2410 -74.2410 -74.2408 -42.9734 -42.9733 -42.9726 -42.9725
   -42.9647 -42.9642 -42.9639 -42.9639 -42.9565 -42.9564 -42.9560 -42.9559
    -5.6596  -5.6042  -5.5989  -5.4439   1.9709   2.0689   2.1470   2.1678
     2.9686   3.0249   3.2192   3.2215   3.2459   3.3891   3.4115   3.5411
     4.7211   4.8951   4.9178   4.9783   5.0122   5.0599   5.0739   5.1492
     5.3058   5.4233   5.5226   5.8561   5.9409   6.3087   6.3725   6.3933
     6.5403   6.7150

     occupation numbers 
     1.0000   1.0000   1.0000   1.0000   1.0000   1.0000   1.0000   1.0000
     1.0000   1.0000   1.0000   1.0000   1.0000   1.0000   1.0000   1.0000
     1.0000   1.0000   1.0000   1.0000   1.0000   1.0000   1.0000   1.0000
     1.0000   1.0000   1.0000   1.0000   1.0000   1.0000   1.0000   1.0000
     1.0000   1.0000   1.0000   1.0000   1.0000   1.0000   1.0000   1.0000
     1.0000   1.0000   1.0000   1.0000   1.0000   1.0000   1.0000   1.0000
     1.0000   1.0000

          k =-0.3333 0.1925 0.6260 (  3178 PWs)   bands (ev):

   -74.2412 -74.2412 -74.2410 -74.2409 -42.9736 -42.9733 -42.9728 -42.9725
   -42.9648 -42.9646 -42.9641 -42.9636 -42.9556 -42.9554 -42.9552 -42.9550
    -5.9109  -5.8368  -5.6378  -5.4712   2.2387   2.2635   2.3718   2.4549
     2.7281   2.9586   3.0225   3.1420   3.1578   3.2031   3.3162   3.4690
     4.7276   4.8089   4.8315   4.8345   5.0054   5.0327   5.0446   5.0787
     5.4111   5.7903   5.8481   6.1581   6.3038   6.3821   6.5533   6.8113
     6.9866   7.0587

     occupation numbers 
     1.0000   1.0000   1.0000   1.0000   1.0000   1.0000   1.0000   1.0000
     1.0000   1.0000   1.0000   1.0000   1.0000   1.0000   1.0000   1.0000
     1.0000   1.0000   1.0000   1.0000   1.0000   1.0000   1.0000   1.0000
     1.0000   1.0000   1.0000   1.0000   1.0000   1.0000   1.0000   1.0000
     1.0000   1.0000   1.0000   1.0000   1.0000   1.0000   1.0000   1.0000
     1.0000   1.0000   1.0000   1.0000   1.0000   1.0000   1.0000   1.0000
     1.0000   1.0000

          k = 0.3333-0.5774-0.4899 (  3179 PWs)   bands (ev):

   -74.2413 -74.2412 -74.2410 -74.2409 -42.9736 -42.9733 -42.9728 -42.9724
   -42.9652 -42.9646 -42.9637 -42.9635 -42.9555 -42.9554 -42.9553 -42.9552
    -5.9702  -5.8153  -5.5757  -5.4912   2.2322   2.2535   2.4171   2.4268
     2.7482   2.9523   3.0370   3.1149   3.1264   3.2041   3.3761   3.4196
     4.7495   4.8091   4.8415   4.8542   4.9831   5.0321   5.0406   5.0560
     5.4433   5.6650   5.9614   6.0211   6.1502   6.5657   6.6308   6.8409
     6.9312   7.0016

     occupation numbers 
     1.0000   1.0000   1.0000   1.0000   1.0000   1.0000   1.0000   1.0000
     1.0000   1.0000   1.0000   1.0000   1.0000   1.0000   1.0000   1.0000
     1.0000   1.0000   1.0000   1.0000   1.0000   1.0000   1.0000   1.0000
     1.0000   1.0000   1.0000   1.0000   1.0000   1.0000   1.0000   1.0000
     1.0000   1.0000   1.0000   1.0000   1.0000   1.0000   1.0000   1.0000
     1.0000   1.0000   1.0000   1.0000   1.0000   1.0000   1.0000   1.0000
     1.0000   1.0000

          k = 0.3333-0.5774-0.9798 (  3173 PWs)   bands (ev):

   -74.2411 -74.2410 -74.2410 -74.2409 -42.9735 -42.9733 -42.9727 -42.9724
   -42.9647 -42.9642 -42.9641 -42.9638 -42.9565 -42.9564 -42.9563 -42.9559
    -5.7664  -5.5402  -5.5136  -5.4915   2.2079   2.3007   2.3516   2.4313
     2.7462   2.8193   2.8895   3.1128   3.2409   3.3914   3.4010   3.4105
     4.7570   4.7965   4.8664   4.8819   4.9606   5.0052   5.0256   5.0821
     5.4836   5.5269   5.5767   5.8713   5.9537   5.9758   6.0603   6.6745
     6.6783   6.6891

     occupation numbers 
     1.0000   1.0000   1.0000   1.0000   1.0000   1.0000   1.0000   1.0000
     1.0000   1.0000   1.0000   1.0000   1.0000   1.0000   1.0000   1.0000
     1.0000   1.0000   1.0000   1.0000   1.0000   1.0000   1.0000   1.0000
     1.0000   1.0000   1.0000   1.0000   1.0000   1.0000   1.0000   1.0000
     1.0000   1.0000   1.0000   1.0000   1.0000   1.0000   1.0000   1.0000
     1.0000   1.0000   1.0000   1.0000   1.0000   1.0000   1.0000   1.0000
     1.0000   1.0000

 ------ SPIN DOWN ----------


          k = 0.0000 0.0000 0.0000 (  3203 PWs)   bands (ev):

   -70.2710 -70.2705 -70.2705 -70.2703 -39.1016 -39.1010 -39.0996 -39.0980
   -39.0469 -39.0448 -39.0443 -39.0430 -39.0079 -39.0065 -39.0064 -39.0057
    -6.2274  -5.5688  -5.5686  -5.3575   2.3138   2.3174   2.4166   4.0966
     4.1080   4.1276   4.1356   4.1567   4.2127   4.2177   4.2400   4.2404
     7.3959   8.3682   8.3772   8.4453   8.4656   8.5690   8.6024   8.6025
     8.6099   8.6104   8.8517   8.9150   8.9640   9.6064   9.6139   9.6439
     9.6451   9.7349

     occupation numbers 
     1.0000   1.0000   1.0000   1.0000   1.0000   1.0000   1.0000   1.0000
     1.0000   1.0000   1.0000   1.0000   1.0000   1.0000   1.0000   1.0000
     1.0000   1.0000   1.0000   1.0000   1.0000   1.0000   1.0000   1.0000
     1.0000   1.0000   1.0000   1.0000   1.0000   1.0000   1.0000   1.0000
     1.0000   0.0000   0.0000   0.0000   0.0000   0.0000   0.0000   0.0000
     0.0000   0.0000   0.0000   0.0000   0.0000   0.0000   0.0000   0.0000
     0.0000   0.0000

          k = 0.0000 0.0000 0.4899 (  3184 PWs)   bands (ev):

   -70.2707 -70.2705 -70.2705 -70.2703 -39.1014 -39.1010 -39.0992 -39.0980
   -39.0468 -39.0450 -39.0446 -39.0430 -39.0075 -39.0073 -39.0073 -39.0071
    -6.0165  -5.5010  -5.5009  -5.4353   2.6061   2.6092   2.6679   3.4221
     3.7812   3.8239   3.8245   4.1468   4.1564   4.1597   4.1837   4.1876
     7.6578   7.9454   7.9483   8.4099   8.4321   8.4622   8.4748   8.4785
     8.6136   8.6149   8.6875   9.2713   9.4148   9.4207   9.4566   9.5480
     9.5494   9.5897

     occupation numbers 
     1.0000   1.0000   1.0000   1.0000   1.0000   1.0000   1.0000   1.0000
     1.0000   1.0000   1.0000   1.0000   1.0000   1.0000   1.0000   1.0000
     1.0000   1.0000   1.0000   1.0000   1.0000   1.0000   1.0000   1.0000
     1.0000   1.0000   1.0000   1.0000   1.0000   1.0000   1.0000   1.0000
     0.9988   0.5215   0.5093   0.0000   0.0000   0.0000   0.0000   0.0000
     0.0000   0.0000   0.0000   0.0000   0.0000   0.0000   0.0000   0.0000
     0.0000   0.0000

          k = 0.0000 0.0000 0.9798 (  3151 PWs)   bands (ev):

   -70.2705 -70.2704 -70.2702 -70.2702 -39.1011 -39.1009 -39.0986 -39.0984
   -39.0469 -39.0450 -39.0447 -39.0435 -39.0098 -39.0081 -39.0080 -39.0070
    -5.6392  -5.5502  -5.3797  -5.3796   2.4160   2.4833   2.5102   2.5105
     4.0088   4.0119   4.0976   4.1427   4.1463   4.1987   4.2006   4.2113
     7.4577   7.4580   8.3049   8.4782   8.4811   8.5169   8.5438   8.5678
     8.6037   8.6206   8.7988   8.8030   9.1221   9.1221   9.1481   9.1492
     9.5510   9.6283

     occupation numbers 
     1.0000   1.0000   1.0000   1.0000   1.0000   1.0000   1.0000   1.0000
     1.0000   1.0000   1.0000   1.0000   1.0000   1.0000   1.0000   1.0000
     1.0000   1.0000   1.0000   1.0000   1.0000   1.0000   1.0000   1.0000
     1.0000   1.0000   1.0000   1.0000   1.0000   1.0000   1.0000   1.0000
     1.0000   1.0000   0.0001   0.0000   0.0000   0.0000   0.0000   0.0000
     0.0000   0.0000   0.0000   0.0000   0.0000   0.0000   0.0000   0.0000
     0.0000   0.0000

          k = 0.0000 0.3849-0.1361 (  3185 PWs)   bands (ev):

   -70.2707 -70.2706 -70.2704 -70.2703 -39.1011 -39.1002 -39.1000 -39.0986
   -39.0462 -39.0450 -39.0444 -39.0432 -39.0075 -39.0068 -39.0064 -39.0056
    -6.0761  -5.7490  -5.5197  -5.4144   2.5413   2.6220   2.7091   3.5798
     3.8189   3.8958   4.1412   4.1728   4.1777   4.1891   4.2178   4.2180
     7.5473   8.0476   8.4254   8.4380   8.4392   8.4443   8.4464   8.5292
     8.6296   8.7443   8.8238   9.2408   9.3108   9.5148   9.5684   9.7162
     9.9340   9.9756

     occupation numbers 
     1.0000   1.0000   1.0000   1.0000   1.0000   1.0000   1.0000   1.0000
     1.0000   1.0000   1.0000   1.0000   1.0000   1.0000   1.0000   1.0000
     1.0000   1.0000   1.0000   1.0000   1.0000   1.0000   1.0000   1.0000
     1.0000   1.0000   1.0000   1.0000   1.0000   1.0000   1.0000   1.0000
     1.0000   0.1567   0.0000   0.0000   0.0000   0.0000   0.0000   0.0000
     0.0000   0.0000   0.0000   0.0000   0.0000   0.0000   0.0000   0.0000
     0.0000   0.0000

          k = 0.0000 0.3849 0.3538 (  3165 PWs)   bands (ev):

   -70.2707 -70.2704 -70.2704 -70.2702 -39.1006 -39.1003 -39.0998 -39.0986
   -39.0463 -39.0450 -39.0445 -39.0434 -39.0080 -39.0077 -39.0066 -39.0065
    -5.9848  -5.5782  -5.5390  -5.3564   2.7226   2.7232   2.8471   3.4430
     3.5279   3.6898   3.7681   4.0367   4.1076   4.1171   4.2393   4.2495
     7.4608   8.1237   8.1506   8.2194   8.2475   8.3047   8.3048   8.6151
     8.7645   8.7727   8.8735   9.0156   9.2827   9.3031   9.5999   9.8790
     9.9202   9.9677

     occupation numbers 
     1.0000   1.0000   1.0000   1.0000   1.0000   1.0000   1.0000   1.0000
     1.0000   1.0000   1.0000   1.0000   1.0000   1.0000   1.0000   1.0000
     1.0000   1.0000   1.0000   1.0000   1.0000   1.0000   1.0000   1.0000
     1.0000   1.0000   1.0000   1.0000   1.0000   1.0000   1.0000   1.0000
     1.0000   0.0360   0.0188   0.0026   0.0010   0.0001   0.0001   0.0000
     0.0000   0.0000   0.0000   0.0000   0.0000   0.0000   0.0000   0.0000
     0.0000   0.0000

          k = 0.0000 0.3849 0.8437 (  3166 PWs)   bands (ev):

   -70.2705 -70.2704 -70.2703 -70.2703 -39.1005 -39.1004 -39.0994 -39.0991
   -39.0464 -39.0452 -39.0447 -39.0438 -39.0089 -39.0089 -39.0078 -39.0076
    -5.6395  -5.4846  -5.4531  -5.3849   2.7061   2.7168   2.7464   2.8352
     3.4200   3.6213   3.8188   4.0015   4.1419   4.1544   4.1780   4.1891
     7.5807   7.7244   7.8436   8.0510   8.3483   8.3982   8.5035   8.5170
     8.6908   8.7222   8.7415   8.8845   9.1337   9.2857   9.3163   9.4123
     9.4624   9.5961

     occupation numbers 
     1.0000   1.0000   1.0000   1.0000   1.0000   1.0000   1.0000   1.0000
     1.0000   1.0000   1.0000   1.0000   1.0000   1.0000   1.0000   1.0000
     1.0000   1.0000   1.0000   1.0000   1.0000   1.0000   1.0000   1.0000
     1.0000   1.0000   1.0000   1.0000   1.0000   1.0000   1.0000   1.0000
     0.9999   0.9906   0.8668   0.1482   0.0000   0.0000   0.0000   0.0000
     0.0000   0.0000   0.0000   0.0000   0.0000   0.0000   0.0000   0.0000
     0.0000   0.0000

          k = 0.0000 0.3849-1.1159 (  3158 PWs)   bands (ev):

   -70.2704 -70.2704 -70.2703 -70.2702 -39.1006 -39.1003 -39.0993 -39.0992
   -39.0463 -39.0453 -39.0446 -39.0440 -39.0097 -39.0083 -39.0080 -39.0069
    -5.5675  -5.5156  -5.5111  -5.3652   2.5737   2.5789   2.6339   2.6701
     3.7427   3.8144   3.9196   4.0893   4.0980   4.1271   4.2249   4.2339
     7.4656   7.5748   8.1354   8.2333   8.3031   8.4138   8.4418   8.6855
     8.7349   8.8160   8.8606   8.9056   9.0382   9.1182   9.2964   9.3483
     9.3770   9.4422

     occupation numbers 
     1.0000   1.0000   1.0000   1.0000   1.0000   1.0000   1.0000   1.0000
     1.0000   1.0000   1.0000   1.0000   1.0000   1.0000   1.0000   1.0000
     1.0000   1.0000   1.0000   1.0000   1.0000   1.0000   1.0000   1.0000
     1.0000   1.0000   1.0000   1.0000   1.0000   1.0000   1.0000   1.0000
     1.0000   1.0000   0.0273   0.0016   0.0001   0.0000   0.0000   0.0000
     0.0000   0.0000   0.0000   0.0000   0.0000   0.0000   0.0000   0.0000
     0.0000   0.0000

          k = 0.0000 0.3849-0.6260 (  3178 PWs)   bands (ev):

   -70.2706 -70.2706 -70.2704 -70.2703 -39.1009 -39.1002 -39.0996 -39.0989
   -39.0461 -39.0451 -39.0444 -39.0436 -39.0079 -39.0078 -39.0068 -39.0066
    -5.8046  -5.7348  -5.5472  -5.3905   2.8135   2.9348   2.9463   3.0527
     3.3506   3.6972   3.9339   4.0793   4.1101   4.1248   4.1985   4.2245
     7.6012   7.9302   7.9846   8.2225   8.2319   8.3381   8.5838   8.7228
     8.7858   8.8590   9.0749   9.0749   9.1468   9.1862   9.5090   9.5114
     9.6597   9.8825

     occupation numbers 
     1.0000   1.0000   1.0000   1.0000   1.0000   1.0000   1.0000   1.0000
     1.0000   1.0000   1.0000   1.0000   1.0000   1.0000   1.0000   1.0000
     1.0000   1.0000   1.0000   1.0000   1.0000   1.0000   1.0000   1.0000
     1.0000   1.0000   1.0000   1.0000   1.0000   1.0000   1.0000   1.0000
     0.9999   0.5839   0.3618   0.0024   0.0017   0.0000   0.0000   0.0000
     0.0000   0.0000   0.0000   0.0000   0.0000   0.0000   0.0000   0.0000
     0.0000   0.0000

          k = 0.3333 0.1925-0.2722 (  3186 PWs)   bands (ev):

   -70.2707 -70.2705 -70.2704 -70.2704 -39.1013 -39.1011 -39.0992 -39.0983
   -39.0459 -39.0447 -39.0444 -39.0438 -39.0073 -39.0065 -39.0064 -39.0061
    -6.0267  -5.5931  -5.5795  -5.5794   2.6647   2.6679   2.7243   3.5372
     3.8145   3.8185   4.0990   4.1118   4.1329   4.1426   4.2629   4.2630
     7.6360   8.1807   8.2804   8.2834   8.3181   8.3187   8.5664   8.7578
     8.7601   8.8179   9.1987   9.2566   9.2839   9.3123   9.3175   9.9612
     9.9612  10.0618

     occupation numbers 
     1.0000   1.0000   1.0000   1.0000   1.0000   1.0000   1.0000   1.0000
     1.0000   1.0000   1.0000   1.0000   1.0000   1.0000   1.0000   1.0000
[...]
     1.0000   1.0000   1.0000   1.0000   1.0000   1.0000   1.0000   1.0000
     0.9999   0.2401   0.2371   0.0016   0.0000   0.0000   0.0000   0.0000
     0.0000   0.0000   0.0000   0.0000   0.0000   0.0000   0.0000   0.0000
     0.0000   0.0000

          k = 0.3333-0.5774 0.4899 (  3179 PWs)   bands (ev):

   -70.2722 -70.2722 -70.2719 -70.2719 -39.1061 -39.1052 -39.1049 -39.1039
   -39.0510 -39.0505 -39.0500 -39.0492 -39.0027 -39.0016 -39.0016 -39.0006
    -5.8598  -5.7130  -5.4892  -5.4071   2.8132   2.8734   2.8812   3.1320
     3.4051   3.6349   3.9781   4.0565   4.1462   4.1564   4.1816   4.2403
     7.6393   7.8625   7.9675   8.2253   8.2649   8.2855   8.5696   8.7094
     8.7600   8.8735   8.9204   9.1464   9.1870   9.2474   9.5167   9.5841
     9.6412   9.7560

     occupation numbers 
     1.0000   1.0000   1.0000   1.0000   1.0000   1.0000   1.0000   1.0000
     1.0000   1.0000   1.0000   1.0000   1.0000   1.0000   1.0000   1.0000
     1.0000   1.0000   1.0000   1.0000   1.0000   1.0000   1.0000   1.0000
     1.0000   1.0000   1.0000   1.0000   1.0000   1.0000   1.0000   1.0000
     0.9994   0.8155   0.4235   0.0020   0.0005   0.0002   0.0000   0.0000
     0.0000   0.0000   0.0000   0.0000   0.0000   0.0000   0.0000   0.0000
     0.0000   0.0000

          k = 0.3333-0.5774 0.9798 (  3173 PWs)   bands (ev):

   -70.2721 -70.2720 -70.2719 -70.2719 -39.1059 -39.1053 -39.1047 -39.1039
   -39.0511 -39.0506 -39.0502 -39.0494 -39.0035 -39.0032 -39.0021 -39.0020
    -5.6694  -5.4560  -5.4321  -5.4086   2.8452   2.8711   2.8792   2.9778
     3.2440   3.4537   3.5364   3.9426   4.1001   4.1352   4.1421   4.2107
     7.6422   7.7742   7.8140   7.9405   8.2451   8.2513   8.3234   8.6878
     8.7521   8.8059   8.8708   8.9131   9.1565   9.1840   9.1841   9.4236
     9.5975   9.6633

     occupation numbers 
     1.0000   1.0000   1.0000   1.0000   1.0000   1.0000   1.0000   1.0000
     1.0000   1.0000   1.0000   1.0000   1.0000   1.0000   1.0000   1.0000
     1.0000   1.0000   1.0000   1.0000   1.0000   1.0000   1.0000   1.0000
     1.0000   1.0000   1.0000   1.0000   1.0000   1.0000   1.0000   1.0000
     0.9993   0.9653   0.9196   0.5349   0.0010   0.0008   0.0000   0.0000
     0.0000   0.0000   0.0000   0.0000   0.0000   0.0000   0.0000   0.0000
     0.0000   0.0000

          k =-0.3333 0.1925 0.1361 (  3185 PWs)   bands (ev):

   -70.2723 -70.2722 -70.2720 -70.2719 -39.1061 -39.1055 -39.1050 -39.1037
   -39.0518 -39.0508 -39.0493 -39.0484 -39.0019 -39.0012 -39.0007 -39.0000
    -6.0749  -5.7460  -5.5172  -5.4134   2.5363   2.6265   2.6878   3.5451
     3.7816   3.8920   4.1366   4.2029   4.2263   4.2296   4.2634   4.2694
     7.5342   8.0068   8.4201   8.4222   8.4315   8.4343   8.4403   8.5139
     8.6375   8.7426   8.7748   9.2220   9.3184   9.4936   9.5398   9.6955
     9.8935   9.9609

     occupation numbers 
     1.0000   1.0000   1.0000   1.0000   1.0000   1.0000   1.0000   1.0000
     1.0000   1.0000   1.0000   1.0000   1.0000   1.0000   1.0000   1.0000
     1.0000   1.0000   1.0000   1.0000   1.0000   1.0000   1.0000   1.0000
     1.0000   1.0000   1.0000   1.0000   1.0000   1.0000   1.0000   1.0000
     1.0000   0.2738   0.0000   0.0000   0.0000   0.0000   0.0000   0.0000
     0.0000   0.0000   0.0000   0.0000   0.0000   0.0000   0.0000   0.0000
     0.0000   0.0000

          k =-0.3333 0.1925-0.3538 (  3165 PWs)   bands (ev):

   -70.2723 -70.2720 -70.2720 -70.2718 -39.1060 -39.1052 -39.1050 -39.1036
   -39.0517 -39.0507 -39.0495 -39.0487 -39.0023 -39.0021 -39.0011 -39.0010
    -5.9845  -5.5762  -5.5373  -5.3561   2.7068   2.7134   2.8443   3.4490
     3.5323   3.7150   3.7878   4.0308   4.0989   4.1132   4.2464   4.2638
     7.4676   8.1252   8.1347   8.2214   8.2332   8.2885   8.2960   8.6172
     8.7655   8.7717   8.8770   9.0106   9.2753   9.2895   9.5990   9.8597
     9.9208   9.9488

     occupation numbers 
     1.0000   1.0000   1.0000   1.0000   1.0000   1.0000   1.0000   1.0000
     1.0000   1.0000   1.0000   1.0000   1.0000   1.0000   1.0000   1.0000
     1.0000   1.0000   1.0000   1.0000   1.0000   1.0000   1.0000   1.0000
     1.0000   1.0000   1.0000   1.0000   1.0000   1.0000   1.0000   1.0000
     1.0000   0.0335   0.0268   0.0023   0.0016   0.0002   0.0002   0.0000
     0.0000   0.0000   0.0000   0.0000   0.0000   0.0000   0.0000   0.0000
     0.0000   0.0000

          k =-0.3333 0.1925-0.8437 (  3166 PWs)   bands (ev):

   -70.2721 -70.2720 -70.2719 -70.2719 -39.1059 -39.1052 -39.1047 -39.1040
   -39.0517 -39.0507 -39.0498 -39.0491 -39.0033 -39.0033 -39.0022 -39.0020
    -5.6416  -5.4840  -5.4536  -5.3851   2.7132   2.7195   2.7683   2.8411
     3.4100   3.6037   3.8062   3.9574   4.1296   4.1533   4.1692   4.1787
     7.5894   7.7194   7.8582   8.0630   8.3685   8.3897   8.5030   8.5385
     8.6864   8.7380   8.7905   8.8946   9.1308   9.2769   9.3214   9.4232
     9.5084   9.6047

     occupation numbers 
     1.0000   1.0000   1.0000   1.0000   1.0000   1.0000   1.0000   1.0000
     1.0000   1.0000   1.0000   1.0000   1.0000   1.0000   1.0000   1.0000
     1.0000   1.0000   1.0000   1.0000   1.0000   1.0000   1.0000   1.0000
     1.0000   1.0000   1.0000   1.0000   1.0000   1.0000   1.0000   1.0000
     0.9999   0.9915   0.8271   0.1178   0.0000   0.0000   0.0000   0.0000
     0.0000   0.0000   0.0000   0.0000   0.0000   0.0000   0.0000   0.0000
     0.0000   0.0000

          k =-0.3333 0.1925 1.1159 (  3158 PWs)   bands (ev):

   -70.2720 -70.2720 -70.2719 -70.2718 -39.1058 -39.1052 -39.1046 -39.1040
   -39.0516 -39.0507 -39.0497 -39.0492 -39.0040 -39.0026 -39.0025 -39.0014
    -5.5679  -5.5181  -5.5110  -5.3648   2.5865   2.5934   2.6366   2.6724
     3.7299   3.7714   3.8944   4.0866   4.1042   4.1167   4.1997   4.2386
     7.4656   7.5769   8.1772   8.2352   8.3136   8.4120   8.4557   8.6962
     8.7435   8.8124   8.8786   8.9236   9.0395   9.1370   9.2613   9.3610
     9.3833   9.4399

     occupation numbers 
     1.0000   1.0000   1.0000   1.0000   1.0000   1.0000   1.0000   1.0000
     1.0000   1.0000   1.0000   1.0000   1.0000   1.0000   1.0000   1.0000
     1.0000   1.0000   1.0000   1.0000   1.0000   1.0000   1.0000   1.0000
     1.0000   1.0000   1.0000   1.0000   1.0000   1.0000   1.0000   1.0000
     1.0000   0.9999   0.0088   0.0015   0.0001   0.0000   0.0000   0.0000
     0.0000   0.0000   0.0000   0.0000   0.0000   0.0000   0.0000   0.0000
     0.0000   0.0000

          k =-0.3333 0.1925 0.6260 (  3178 PWs)   bands (ev):

   -70.2722 -70.2722 -70.2720 -70.2718 -39.1060 -39.1053 -39.1047 -39.1041
   -39.0516 -39.0507 -39.0494 -39.0488 -39.0022 -39.0021 -39.0013 -39.0010
    -5.8049  -5.7328  -5.5465  -5.3890   2.8125   2.9174   2.9360   3.0597
     3.3650   3.6988   3.9199   4.1159   4.1229   4.1333   4.2024   4.2171
     7.5818   7.9240   7.9844   8.2250   8.2279   8.3313   8.5866   8.7127
     8.7830   8.8514   9.0181   9.0938   9.1448   9.1885   9.4975   9.5098
     9.6471   9.8797

     occupation numbers 
     1.0000   1.0000   1.0000   1.0000   1.0000   1.0000   1.0000   1.0000
     1.0000   1.0000   1.0000   1.0000   1.0000   1.0000   1.0000   1.0000
     1.0000   1.0000   1.0000   1.0000   1.0000   1.0000   1.0000   1.0000
     1.0000   1.0000   1.0000   1.0000   1.0000   1.0000   1.0000   1.0000
     0.9999   0.6021   0.3560   0.0021   0.0019   0.0000   0.0000   0.0000
     0.0000   0.0000   0.0000   0.0000   0.0000   0.0000   0.0000   0.0000
     0.0000   0.0000

          k = 0.3333-0.5774-0.4899 (  3179 PWs)   bands (ev):

   -70.2722 -70.2722 -70.2719 -70.2719 -39.1060 -39.1053 -39.1048 -39.1040
   -39.0511 -39.0507 -39.0498 -39.0491 -39.0027 -39.0017 -39.0015 -39.0006
    -5.8597  -5.7128  -5.4894  -5.4073   2.8157   2.8776   2.8782   3.1278
     3.4012   3.6341   3.9807   4.0558   4.1422   4.1639   4.1780   4.2445
     7.6436   7.8628   7.9673   8.2264   8.2639   8.2892   8.5678   8.7084
     8.7624   8.8726   8.9100   9.1513   9.1871   9.2415   9.5202   9.5800
     9.6407   9.7522

     occupation numbers 
     1.0000   1.0000   1.0000   1.0000   1.0000   1.0000   1.0000   1.0000
     1.0000   1.0000   1.0000   1.0000   1.0000   1.0000   1.0000   1.0000
     1.0000   1.0000   1.0000   1.0000   1.0000   1.0000   1.0000   1.0000
     1.0000   1.0000   1.0000   1.0000   1.0000   1.0000   1.0000   1.0000
     0.9992   0.8146   0.4241   0.0020   0.0005   0.0002   0.0000   0.0000
     0.0000   0.0000   0.0000   0.0000   0.0000   0.0000   0.0000   0.0000
     0.0000   0.0000

          k = 0.3333-0.5774-0.9798 (  3173 PWs)   bands (ev):

   -70.2721 -70.2720 -70.2719 -70.2719 -39.1059 -39.1053 -39.1047 -39.1040
   -39.0512 -39.0507 -39.0501 -39.0494 -39.0034 -39.0032 -39.0021 -39.0021
    -5.6694  -5.4559  -5.4322  -5.4087   2.8427   2.8701   2.8780   2.9766
     3.2480   3.4570   3.5382   3.9484   4.0976   4.1375   4.1376   4.2059
     7.6464   7.7762   7.8134   7.9415   8.2432   8.2508   8.3214   8.6877
     8.7514   8.8042   8.8713   8.9127   9.1521   9.1860   9.1878   9.4216
     9.5953   9.6625

     occupation numbers 
     1.0000   1.0000   1.0000   1.0000   1.0000   1.0000   1.0000   1.0000
     1.0000   1.0000   1.0000   1.0000   1.0000   1.0000   1.0000   1.0000
     1.0000   1.0000   1.0000   1.0000   1.0000   1.0000   1.0000   1.0000
     1.0000   1.0000   1.0000   1.0000   1.0000   1.0000   1.0000   1.0000
     0.9992   0.9637   0.9205   0.5306   0.0011   0.0009   0.0001   0.0000
     0.0000   0.0000   0.0000   0.0000   0.0000   0.0000   0.0000   0.0000
     0.0000   0.0000

     the Fermi energy is     7.9489 ev

!    total energy              =   -1410.97185576 Ry
     total all-electron energy =    -12462.405470 Ry
     estimated scf accuracy    <          5.9E-13 Ry
     smearing contrib. (-TS)   =      -0.00291699 Ry
     internal energy E=F+TS    =   -1410.96893877 Ry

     The total energy is F=E-TS. E is the sum of the following terms:
     one-electron contribution =    -609.04085160 Ry
     hartree contribution      =     338.02876942 Ry
     xc contribution           =    -131.96919483 Ry
     ewald contribution        =    -513.00047353 Ry
     one-center paw contrib.   =    -494.98718823 Ry
      -> PAW hartree energy AE =     350.74563892 Ry
      -> PAW hartree energy PS =    -352.65757094 Ry
      -> PAW xc energy AE      =    -208.89117385 Ry
      -> PAW xc energy PS      =      55.57100056 Ry
      -> total E_H with PAW    =     336.11683740 Ry
      -> total E_XC with PAW   =    -285.28936812 Ry

     total magnetization       =    15.96 Bohr mag/cell
     absolute magnetization    =    16.05 Bohr mag/cell

     convergence has been achieved in  14 iterations

     Forces acting on atoms (cartesian axes, Ry/au):

     atom    1 type  1   force =     0.00002163    0.00000082    0.00000640
     atom    2 type  2   force =    -0.00000099   -0.00001140    0.00002343
     atom    3 type  3   force =     0.00000142   -0.00001352    0.00002263
     atom    4 type  4   force =     0.00002401    0.00000021    0.00000491
     atom    5 type  5   force =    -0.00001123    0.00000575   -0.00001432
     atom    6 type  5   force =    -0.00001086    0.00000564   -0.00001478
     atom    7 type  5   force =    -0.00001180    0.00000659   -0.00001448
     atom    8 type  5   force =    -0.00001219    0.00000591   -0.00001378
     The non-local contrib.  to forces
     atom    1 type  1   force =    -0.00007140    0.00267017    0.00316528
     atom    2 type  2   force =    -0.00010637    0.00265044    0.00319102
     atom    3 type  3   force =    -0.00010717    0.00265096    0.00319118
     atom    4 type  4   force =    -0.00007240    0.00267056    0.00316554
     atom    5 type  5   force =    -0.00255358   -0.00243635    0.00333812
     atom    6 type  5   force =    -0.00270881   -0.00252595    0.00346713
     atom    7 type  5   force =    -0.00270857   -0.00252618    0.00346692
     atom    8 type  5   force =    -0.00255346   -0.00243644    0.00333786
     The ionic contribution  to forces
     atom    1 type  1   force =     0.09105899    0.04592919   -0.12718635
     atom    2 type  2   force =     0.09290517    0.04713565   -0.12873775
     atom    3 type  3   force =     0.09327969    0.04677997   -0.12884183
     atom    4 type  4   force =     0.09143478    0.04585342   -0.12739463
     atom    5 type  5   force =    -0.09206554   -0.04642763    0.12798597
     atom    6 type  5   force =    -0.09211263   -0.04651693    0.12803356
     atom    7 type  5   force =    -0.09227514   -0.04635823    0.12807624
     atom    8 type  5   force =    -0.09222531   -0.04639545    0.12806478
     The local contribution  to forces
     atom    1 type  1   force =    -0.09129580   -0.04853922    0.12494382
     atom    2 type  2   force =    -0.09313256   -0.04973997    0.12648886
     atom    3 type  3   force =    -0.09350510   -0.04938610    0.12659251
     atom    4 type  4   force =    -0.09166945   -0.04846389    0.12515104
     atom    5 type  5   force =     0.09435166    0.04870808   -0.13100253
     atom    6 type  5   force =     0.09455021    0.04888426   -0.13117610
     atom    7 type  5   force =     0.09471109    0.04872720   -0.13121816
     atom    8 type  5   force =     0.09450992    0.04867619   -0.13108030
     The core correction contribution to forces
     atom    1 type  1   force =     0.00024800   -0.00010025   -0.00081380
     atom    2 type  2   force =     0.00025092   -0.00009818   -0.00081626
     atom    3 type  3   force =     0.00025212   -0.00009925   -0.00081663
     atom    4 type  4   force =     0.00024924   -0.00010051   -0.00081460
     atom    5 type  5   force =     0.00017446    0.00012072   -0.00023335
     atom    6 type  5   force =     0.00017891    0.00012331   -0.00023702
     atom    7 type  5   force =     0.00017896    0.00012326   -0.00023703
     atom    8 type  5   force =     0.00017451    0.00012071   -0.00023337
     The Hubbard contrib.    to forces
     atom    1 type  1   force =     0.00000000    0.00000000    0.00000000
     atom    2 type  2   force =     0.00000000    0.00000000    0.00000000
     atom    3 type  3   force =     0.00000000    0.00000000    0.00000000
     atom    4 type  4   force =     0.00000000    0.00000000    0.00000000
     atom    5 type  5   force =     0.00000000    0.00000000    0.00000000
     atom    6 type  5   force =     0.00000000    0.00000000    0.00000000
     atom    7 type  5   force =     0.00000000    0.00000000    0.00000000
     atom    8 type  5   force =     0.00000000    0.00000000    0.00000000
     The SCF correction term to forces
     atom    1 type  1   force =     0.00000002    0.00000011   -0.00000003
     atom    2 type  2   force =     0.00000002   -0.00000016    0.00000008
     atom    3 type  3   force =     0.00000007    0.00000008   -0.00000007
     atom    4 type  4   force =     0.00000003   -0.00000019    0.00000009
     atom    5 type  5   force =    -0.00000005    0.00000011   -0.00000001
     atom    6 type  5   force =    -0.00000035    0.00000012    0.00000018
     atom    7 type  5   force =     0.00000005   -0.00000029    0.00000007
     atom    8 type  5   force =     0.00000034    0.00000007   -0.00000023

     Total force =     0.000063     Total SCF correction =     0.000001
     Energy error            =      5.1E-09 Ry
     Gradient error          =      2.4E-05 Ry/Bohr

     bfgs converged in   6 scf cycles and   5 bfgs steps
     (criteria: energy <  1.0E-05 Ry, force <  1.0E-04 Ry/Bohr)

     End of BFGS Geometry Optimization

     Final energy             =   -1410.9718557609 Ry

     File ./temp/mns.bfgs deleted, as requested
Begin final coordinates

ATOMIC_POSITIONS (crystal)
Mn1              0.3734958391        0.3736312283        0.7541624863
Mn2              0.3734882295        0.8736228960        0.7541783981
Mn3              0.8734863221        0.3736239746        0.7541792322
Mn4              0.8734941864        0.8736312086        0.7541643547
S                0.0015087359        0.0013725814       -0.0041707872
S                0.0015088536        0.5013728407       -0.0041714322
S                0.5015090138        0.0013726557       -0.0041713738
S                0.5015088196        0.5013726148       -0.0041708781
End final coordinates



     Writing all to output data dir ./temp/mns.save/ :
     XML data file, charge density, pseudopotentials, collected wavefunctions

     init_run     :      3.46s CPU      3.59s WALL (       1 calls)
     electrons    :   1173.45s CPU   1216.91s WALL (       6 calls)
     update_pot   :      3.07s CPU      3.10s WALL (       5 calls)
     forces       :     10.96s CPU     11.13s WALL (       6 calls)

     Called by init_run:
     wfcinit      :      2.24s CPU      2.30s WALL (       1 calls)
     wfcinit:atom :      0.02s CPU      0.02s WALL (      46 calls)
     wfcinit:wfcr :      2.11s CPU      2.17s WALL (      46 calls)
     potinit      :      0.68s CPU      0.72s WALL (       1 calls)
     hinit0       :      0.33s CPU      0.34s WALL (       1 calls)

     Called by electrons:
     c_bands      :    919.61s CPU    953.45s WALL (     143 calls)
     sum_band     :    146.13s CPU    153.59s WALL (     143 calls)
     v_of_rho     :      3.12s CPU      3.26s WALL (     144 calls)
     v_h          :      0.12s CPU      0.13s WALL (     144 calls)
     v_xc         :      3.12s CPU      3.25s WALL (     150 calls)
     newd         :     25.05s CPU     25.56s WALL (     144 calls)
     PAW_pot      :     85.62s CPU     87.02s WALL (     149 calls)
     mix_rho      :      1.01s CPU      1.04s WALL (     143 calls)

     Called by c_bands:
     init_us_2    :     11.89s CPU     12.33s WALL (   13708 calls)
     cegterg      :    894.80s CPU    927.78s WALL (    6578 calls)

     Called by sum_band:
     sum_band:wei :      0.13s CPU      0.14s WALL (     143 calls)
     sum_band:loo :    106.54s CPU    112.96s WALL (     143 calls)
     sum_band:buf :      2.32s CPU      2.42s WALL (    6578 calls)
     sum_band:ini :      5.56s CPU      5.76s WALL (    6578 calls)
     sum_band:cal :     45.98s CPU     48.05s WALL (    6808 calls)
     sum_band:bec :      1.56s CPU      1.59s WALL (    6808 calls)
     addusdens    :     38.73s CPU     39.74s WALL (     143 calls)
                                        0.00s GPU  (     143 calls)
     addusd:skk   :      0.07s CPU      0.07s WALL (     715 calls)
                                        0.00s GPU  (     715 calls)

     Called by *egterg:
     cdiaghg      :    108.94s CPU    110.66s WALL (   35098 calls)
     cegterg:over :     75.49s CPU     77.13s WALL (   28980 calls)
     cegterg:upda :     38.91s CPU     39.43s WALL (   28980 calls)
     cegterg:last :     83.61s CPU     84.73s WALL (   12808 calls)
     h_psi        :    455.32s CPU    480.80s WALL (   35604 calls)
     s_psi        :     92.14s CPU     93.71s WALL (   35604 calls)
     g_psi        :      0.80s CPU      0.81s WALL (   28980 calls)

     Called by h_psi:
     h_psi:calbec :    121.46s CPU    127.00s WALL (   35604 calls)
     vloc_psi     :    235.02s CPU    253.02s WALL (   35604 calls)
     add_vuspsi   :     95.18s CPU     97.06s WALL (   35604 calls)

     General routines
     calbec       :    174.51s CPU    182.25s WALL (   43516 calls)
     fft          :      1.71s CPU      1.77s WALL (    3693 calls)
     ffts         :      0.19s CPU      0.20s WALL (     574 calls)
     fftw         :    258.38s CPU    278.62s WALL ( 1921384 calls)
     interpolate  :      0.28s CPU      0.29s WALL (     288 calls)

     Parallel routines

     PAW routines
     PAW_pot      :     85.62s CPU     87.02s WALL (     149 calls)

     PWSCF        :  19m57.08s CPU  20m41.11s WALL


   This run was terminated on:  13:49:55  19Jan2025            

=------------------------------------------------------------------------------=
   JOB DONE.
=------------------------------------------------------------------------------=
