
     Program PWSCF v.7.3.1 starts on 26Dec2024 at  5:28:10 

     This program is part of the open-source Quantum ESPRESSO suite
     for quantum simulation of materials; please cite
         "P. Giannozzi et al., J. Phys.:Condens. Matter 21 395502 (2009);
         "P. Giannozzi et al., J. Phys.:Condens. Matter 29 465901 (2017);
         "P. Giannozzi et al., J. Chem. Phys. 152 154105 (2020);
          URL http://www.quantum-espresso.org", 
     in publications or presentations arising from this work. More details at
     http://www.quantum-espresso.org/quote

     Parallel version (MPI), running on     4 processors

     MPI processes distributed on     1 nodes
     5065 MiB available memory on the printing compute node when the environment starts

     Reading input from nscf.in

     Current dimensions of program PWSCF are:
     Max number of different atomic species (ntypx) = 10
     Max number of k-points (npk) =  40000
     Max angular momentum in pseudopotentials (lmaxx) =  4
     file C.pbesol-n-kjpaw_psl.1.0.0.UPF: wavefunction(s)  2S 2P renormalized

     Atomic positions and unit cell read from directory:
     ./temp/graphite.save/


     R & G space division:  proc/nbgrp/npool/nimage =       4
     Subspace diagonalization in iterative solution of the eigenvalue problem:
     a serial algorithm will be used


     Parallelization info
     --------------------
     sticks:   dense  smooth     PW     G-vecs:    dense   smooth      PW
     Min         148      75     22                 7908     2809     497
     Max         150      76     23                 7914     2814     499
     Sum         595     301     91                31645    11241    1993

     Using Slab Decomposition



     bravais-lattice index     =            4
     lattice parameter (alat)  =       4.6460  a.u.
     unit-cell volume          =     234.0398 (a.u.)^3
     number of atoms/cell      =            4
     number of atomic types    =            1
     number of electrons       =        16.00
     number of Kohn-Sham states=           12
     kinetic-energy cutoff     =      50.0000  Ry
     charge density cutoff     =     400.0000  Ry
     Exchange-correlation= SLA  PW   PSX  PSC
                           (   1   4  10   8   0   0   0)

     celldm(1)=   4.646043  celldm(2)=   0.000000  celldm(3)=   2.694694
     celldm(4)=   0.000000  celldm(5)=   0.000000  celldm(6)=   0.000000

     crystal axes: (cart. coord. in units of alat)
               a(1) = (   1.000000   0.000000   0.000000 )  
               a(2) = (  -0.500000   0.866025   0.000000 )  
               a(3) = (   0.000000   0.000000   2.694694 )  

     reciprocal axes: (cart. coord. in units 2 pi/alat)
               b(1) = (  1.000000  0.577350 -0.000000 )  
               b(2) = (  0.000000  1.154701  0.000000 )  
               b(3) = (  0.000000 -0.000000  0.371100 )  


     PseudoPot. # 1 for C  read from file:
     ./../../pseudos/C.pbesol-n-kjpaw_psl.1.0.0.UPF
     MD5 check sum: f9b2fe17d1f478429498b05d17159f9e
     Pseudo is Projector augmented-wave + core cor, Zval =  4.0
     Generated using &quot;atomic&quot; code by A. Dal Corso  v.6.3
     Shape of augmentation charge: PSQ
     Using radial grid of 1073 points,  4 beta functions with: 
                l(1) =   0
                l(2) =   0
                l(3) =   1
                l(4) =   1
     Q(r) pseudized with 0 coefficients 


     atomic species   valence    mass     pseudopotential
     C                 4.00    12.01100     C ( 1.00)

     24 Sym. Ops., with inversion, found (12 have fractional translation)


                                    s                        frac. trans.

      isym =  1     identity                                     

 cryst.   s( 1) = (     1          0          0      )
                  (     0          1          0      )
                  (     0          0          1      )

 cart.    s( 1) = (  1.0000000  0.0000000  0.0000000 )
                  (  0.0000000  1.0000000  0.0000000 )
                  (  0.0000000  0.0000000  1.0000000 )


      isym =  2     180 deg rotation - cart. axis [0,0,1]        

 cryst.   s( 2) = (    -1          0          0      )    f =(  0.0000000 )
                  (     0         -1          0      )       (  0.0000000 )
                  (     0          0          1      )       ( -0.5000000 )

 cart.    s( 2) = ( -1.0000000  0.0000000  0.0000000 )    f =(  0.0000000 )
                  (  0.0000000 -1.0000000  0.0000000 )       (  0.0000000 )
                  (  0.0000000  0.0000000  1.0000000 )       ( -1.3473468 )


      isym =  3     180 deg rotation - cart. axis [0,1,0]        

 cryst.   s( 3) = (    -1          0          0      )    f =(  0.0000000 )
                  (     1          1          0      )       (  0.0000000 )
                  (     0          0         -1      )       (  0.5000000 )

 cart.    s( 3) = ( -1.0000000  0.0000000  0.0000000 )    f =(  0.0000000 )
                  (  0.0000000  1.0000000  0.0000000 )       (  0.0000000 )
                  (  0.0000000  0.0000000 -1.0000000 )       (  1.3473468 )


      isym =  4     180 deg rotation - cart. axis [1,0,0]        

 cryst.   s( 4) = (     1          0          0      )
                  (    -1         -1          0      )
                  (     0          0         -1      )

 cart.    s( 4) = (  1.0000000  0.0000000  0.0000000 )
                  (  0.0000000 -1.0000000  0.0000000 )
                  (  0.0000000  0.0000000 -1.0000000 )


      isym =  5      60 deg rotation - cryst. axis [0,0,1]       

 cryst.   s( 5) = (     1          1          0      )    f =(  0.0000000 )
                  (    -1          0          0      )       (  0.0000000 )
                  (     0          0          1      )       ( -0.5000000 )

 cart.    s( 5) = (  0.5000000 -0.8660254  0.0000000 )    f =(  0.0000000 )
                  (  0.8660254  0.5000000  0.0000000 )       (  0.0000000 )
                  (  0.0000000  0.0000000  1.0000000 )       ( -1.3473468 )


      isym =  6      60 deg rotation - cryst. axis [0,0,-1]      

 cryst.   s( 6) = (     0         -1          0      )    f =(  0.0000000 )
                  (     1          1          0      )       (  0.0000000 )
                  (     0          0          1      )       ( -0.5000000 )

 cart.    s( 6) = (  0.5000000  0.8660254  0.0000000 )    f =(  0.0000000 )
                  ( -0.8660254  0.5000000  0.0000000 )       (  0.0000000 )
                  (  0.0000000  0.0000000  1.0000000 )       ( -1.3473468 )


      isym =  7     120 deg rotation - cryst. axis [0,0,1]       

 cryst.   s( 7) = (     0          1          0      )
                  (    -1         -1          0      )
                  (     0          0          1      )

 cart.    s( 7) = ( -0.5000000 -0.8660254  0.0000000 )
                  (  0.8660254 -0.5000000  0.0000000 )
                  (  0.0000000  0.0000000  1.0000000 )


      isym =  8     120 deg rotation - cryst. axis [0,0,-1]      

 cryst.   s( 8) = (    -1         -1          0      )
                  (     1          0          0      )
                  (     0          0          1      )

 cart.    s( 8) = ( -0.5000000  0.8660254  0.0000000 )
                  ( -0.8660254 -0.5000000  0.0000000 )
                  (  0.0000000  0.0000000  1.0000000 )


      isym =  9     180 deg rotation - cryst. axis [1,-1,0]      

 cryst.   s( 9) = (     0         -1          0      )    f =(  0.0000000 )
                  (    -1          0          0      )       (  0.0000000 )
                  (     0          0         -1      )       (  0.5000000 )

 cart.    s( 9) = (  0.5000000 -0.8660254  0.0000000 )    f =(  0.0000000 )
                  ( -0.8660254 -0.5000000  0.0000000 )       (  0.0000000 )
                  (  0.0000000  0.0000000 -1.0000000 )       (  1.3473468 )


      isym = 10     180 deg rotation - cryst. axis [2,1,0]       

 cryst.   s(10) = (     1          1          0      )    f =(  0.0000000 )
                  (     0         -1          0      )       (  0.0000000 )
                  (     0          0         -1      )       (  0.5000000 )

 cart.    s(10) = (  0.5000000  0.8660254  0.0000000 )    f =(  0.0000000 )
                  (  0.8660254 -0.5000000  0.0000000 )       (  0.0000000 )
                  (  0.0000000  0.0000000 -1.0000000 )       (  1.3473468 )


      isym = 11     180 deg rotation - cryst. axis [0,1,0]       

 cryst.   s(11) = (    -1         -1          0      )
                  (     0          1          0      )
                  (     0          0         -1      )

 cart.    s(11) = ( -0.5000000 -0.8660254  0.0000000 )
                  ( -0.8660254  0.5000000  0.0000000 )
                  (  0.0000000  0.0000000 -1.0000000 )


      isym = 12     180 deg rotation - cryst. axis [1,1,0]       

 cryst.   s(12) = (     0          1          0      )
                  (     1          0          0      )
                  (     0          0         -1      )

 cart.    s(12) = ( -0.5000000  0.8660254  0.0000000 )
                  (  0.8660254  0.5000000  0.0000000 )
                  (  0.0000000  0.0000000 -1.0000000 )


      isym = 13     inversion                                    

 cryst.   s(13) = (    -1          0          0      )
                  (     0         -1          0      )
                  (     0          0         -1      )

 cart.    s(13) = ( -1.0000000  0.0000000  0.0000000 )
                  (  0.0000000 -1.0000000  0.0000000 )
                  (  0.0000000  0.0000000 -1.0000000 )


      isym = 14     inv. 180 deg rotation - cart. axis [0,0,1]   

 cryst.   s(14) = (     1          0          0      )    f =(  0.0000000 )
                  (     0          1          0      )       (  0.0000000 )
                  (     0          0         -1      )       (  0.5000000 )

 cart.    s(14) = (  1.0000000  0.0000000  0.0000000 )    f =(  0.0000000 )
                  (  0.0000000  1.0000000  0.0000000 )       (  0.0000000 )
                  (  0.0000000  0.0000000 -1.0000000 )       (  1.3473468 )


      isym = 15     inv. 180 deg rotation - cart. axis [0,1,0]   

 cryst.   s(15) = (     1          0          0      )    f =(  0.0000000 )
                  (    -1         -1          0      )       (  0.0000000 )
                  (     0          0          1      )       ( -0.5000000 )

 cart.    s(15) = (  1.0000000  0.0000000  0.0000000 )    f =(  0.0000000 )
                  (  0.0000000 -1.0000000  0.0000000 )       (  0.0000000 )
                  (  0.0000000  0.0000000  1.0000000 )       ( -1.3473468 )


      isym = 16     inv. 180 deg rotation - cart. axis [1,0,0]   

 cryst.   s(16) = (    -1          0          0      )
                  (     1          1          0      )
                  (     0          0          1      )

 cart.    s(16) = ( -1.0000000  0.0000000  0.0000000 )
                  (  0.0000000  1.0000000  0.0000000 )
                  (  0.0000000  0.0000000  1.0000000 )


      isym = 17     inv.  60 deg rotation - cryst. axis [0,0,1]  

 cryst.   s(17) = (    -1         -1          0      )    f =(  0.0000000 )
                  (     1          0          0      )       (  0.0000000 )
                  (     0          0         -1      )       (  0.5000000 )

 cart.    s(17) = ( -0.5000000  0.8660254  0.0000000 )    f =(  0.0000000 )
                  ( -0.8660254 -0.5000000  0.0000000 )       (  0.0000000 )
                  (  0.0000000  0.0000000 -1.0000000 )       (  1.3473468 )


      isym = 18     inv.  60 deg rotation - cryst. axis [0,0,-1] 

 cryst.   s(18) = (     0          1          0      )    f =(  0.0000000 )
                  (    -1         -1          0      )       (  0.0000000 )
                  (     0          0         -1      )       (  0.5000000 )

 cart.    s(18) = ( -0.5000000 -0.8660254  0.0000000 )    f =(  0.0000000 )
                  (  0.8660254 -0.5000000  0.0000000 )       (  0.0000000 )
                  (  0.0000000  0.0000000 -1.0000000 )       (  1.3473468 )


      isym = 19     inv. 120 deg rotation - cryst. axis [0,0,1]  

 cryst.   s(19) = (     0         -1          0      )
                  (     1          1          0      )
                  (     0          0         -1      )

 cart.    s(19) = (  0.5000000  0.8660254  0.0000000 )
                  ( -0.8660254  0.5000000  0.0000000 )
                  (  0.0000000  0.0000000 -1.0000000 )


      isym = 20     inv. 120 deg rotation - cryst. axis [0,0,-1] 

 cryst.   s(20) = (     1          1          0      )
                  (    -1          0          0      )
                  (     0          0         -1      )

 cart.    s(20) = (  0.5000000 -0.8660254  0.0000000 )
                  (  0.8660254  0.5000000  0.0000000 )
                  (  0.0000000  0.0000000 -1.0000000 )


      isym = 21     inv. 180 deg rotation - cryst. axis [1,-1,0] 

 cryst.   s(21) = (     0          1          0      )    f =(  0.0000000 )
                  (     1          0          0      )       (  0.0000000 )
                  (     0          0          1      )       ( -0.5000000 )

 cart.    s(21) = ( -0.5000000  0.8660254  0.0000000 )    f =(  0.0000000 )
                  (  0.8660254  0.5000000  0.0000000 )       (  0.0000000 )
                  (  0.0000000  0.0000000  1.0000000 )       ( -1.3473468 )


      isym = 22     inv. 180 deg rotation - cryst. axis [2,1,0]  

 cryst.   s(22) = (    -1         -1          0      )    f =(  0.0000000 )
                  (     0          1          0      )       (  0.0000000 )
                  (     0          0          1      )       ( -0.5000000 )

 cart.    s(22) = ( -0.5000000 -0.8660254  0.0000000 )    f =(  0.0000000 )
                  ( -0.8660254  0.5000000  0.0000000 )       (  0.0000000 )
                  (  0.0000000  0.0000000  1.0000000 )       ( -1.3473468 )


      isym = 23     inv. 180 deg rotation - cryst. axis [0,1,0]  

 cryst.   s(23) = (     1          1          0      )
                  (     0         -1          0      )
                  (     0          0          1      )

 cart.    s(23) = (  0.5000000  0.8660254  0.0000000 )
                  (  0.8660254 -0.5000000  0.0000000 )
                  (  0.0000000  0.0000000  1.0000000 )


      isym = 24     inv. 180 deg rotation - cryst. axis [1,1,0]  

 cryst.   s(24) = (     0         -1          0      )
                  (    -1          0          0      )
                  (     0          0          1      )

 cart.    s(24) = (  0.5000000 -0.8660254  0.0000000 )
                  ( -0.8660254 -0.5000000  0.0000000 )
                  (  0.0000000  0.0000000  1.0000000 )


     point group D_6h(6/mmm)
     there are 12 classes
     the character table:

       E     2C6   2C3   C2    3C2'  3C2'' i     2S3   2S6   s_h   3s_d  3s_v 
A_1g   1.00  1.00  1.00  1.00  1.00  1.00  1.00  1.00  1.00  1.00  1.00  1.00
A_2g   1.00  1.00  1.00  1.00 -1.00 -1.00  1.00  1.00  1.00  1.00 -1.00 -1.00
B_1g   1.00 -1.00  1.00 -1.00  1.00 -1.00  1.00 -1.00  1.00 -1.00  1.00 -1.00
B_2g   1.00 -1.00  1.00 -1.00 -1.00  1.00  1.00 -1.00  1.00 -1.00 -1.00  1.00
E_1g   2.00  1.00 -1.00 -2.00  0.00  0.00  2.00  1.00 -1.00 -2.00  0.00  0.00
E_2g   2.00 -1.00 -1.00  2.00  0.00  0.00  2.00 -1.00 -1.00  2.00  0.00  0.00
A_1u   1.00  1.00  1.00  1.00  1.00  1.00 -1.00 -1.00 -1.00 -1.00 -1.00 -1.00
A_2u   1.00  1.00  1.00  1.00 -1.00 -1.00 -1.00 -1.00 -1.00 -1.00  1.00  1.00
B_1u   1.00 -1.00  1.00 -1.00  1.00 -1.00 -1.00  1.00 -1.00  1.00 -1.00  1.00
B_2u   1.00 -1.00  1.00 -1.00 -1.00  1.00 -1.00  1.00 -1.00  1.00  1.00 -1.00
E_1u   2.00  1.00 -1.00 -2.00  0.00  0.00 -2.00 -1.00  1.00  2.00  0.00  0.00
E_2u   2.00 -1.00 -1.00  2.00  0.00  0.00 -2.00  1.00  1.00 -2.00  0.00  0.00

     the symmetry operations in each class and the name of the first element:

     E        1
          identity                                               
     2C6      5    6
           60 deg rotation - cryst. axis [0,0,1]                 
     2C3      7    8
          120 deg rotation - cryst. axis [0,0,1]                 
     C2       2
          180 deg rotation - cart. axis [0,0,1]                  
     3C2'     4   12   11
          180 deg rotation - cart. axis [1,0,0]                  
     3C2''    3    9   10
          180 deg rotation - cart. axis [0,1,0]                  
     i       13
          inversion                                              
     2S3     17   18
          inv.  60 deg rotation - cryst. axis [0,0,1]            
     2S6     19   20
          inv. 120 deg rotation - cryst. axis [0,0,1]            
     s_h     14
          inv. 180 deg rotation - cart. axis [0,0,1]             
     3s_d    16   24   23
          inv. 180 deg rotation - cart. axis [1,0,0]             
     3s_v    15   21   22
          inv. 180 deg rotation - cart. axis [0,1,0]             

   Cartesian axes

     site n.     atom                  positions (alat units)
         1        C      tau(   1) = (   0.0000000   0.0000000   0.6736734  )
         2        C      tau(   2) = (   0.0000000   0.0000000   2.0210203  )
         3        C      tau(   3) = (   0.0000000   0.5773503   0.6736734  )
         4        C      tau(   4) = (   0.5000000   0.2886751   2.0210203  )

     --------------------------------------------
     DFT-D3 Dispersion Correction (3-body terms):
     --------------------------------------------
       Reference C6 values for interpolation: 

         atom   Coordination number   C6
         C          0.000            98.23
         C          0.987            86.49
         C          1.998            58.72
         C          2.999            51.56
         C          3.984            36.41

       Values used:

         atom   Coordination number  R0_AB[au]  C6      C8
         C          3.337            2.750     47.80   1382.46
         C          3.337            2.750     47.80   1382.46
         C          3.336            2.750     47.81   1382.78
         C          3.336            2.750     47.81   1382.78

         Molecular C6 ( Ry / a.u.^6 ) =       764.89


   Crystallographic axes

     site n.     atom                  positions (cryst. coord.)
         1        C      tau(   1) = (  0.0000000  0.0000000  0.2500000  )
         2        C      tau(   2) = (  0.0000000  0.0000000  0.7500000  )
         3        C      tau(   3) = (  0.3333333  0.6666667  0.2500000  )
         4        C      tau(   4) = (  0.6666667  0.3333333  0.7500000  )

     number of k points=   108 (tetrahedron method)
                       cart. coord. in units 2pi/alat
        k(    1) = (   0.0000000   0.0000000   0.0000000), wk =   0.0012698
        k(    2) = (   0.0000000   0.0000000   0.0530142), wk =   0.0025397
        k(    3) = (   0.0000000   0.0000000   0.1060285), wk =   0.0025397
        k(    4) = (   0.0000000   0.0000000   0.1590427), wk =   0.0025397
        k(    5) = (   0.0000000   0.0769800   0.0000000), wk =   0.0076190
        k(    6) = (   0.0000000   0.0769800   0.0530142), wk =   0.0152381
        k(    7) = (   0.0000000   0.0769800   0.1060285), wk =   0.0152381
        k(    8) = (   0.0000000   0.0769800   0.1590427), wk =   0.0152381
        k(    9) = (   0.0000000   0.1539601   0.0000000), wk =   0.0076190
        k(   10) = (   0.0000000   0.1539601   0.0530142), wk =   0.0152381
        k(   11) = (   0.0000000   0.1539601   0.1060285), wk =   0.0152381
        k(   12) = (   0.0000000   0.1539601   0.1590427), wk =   0.0152381
        k(   13) = (   0.0000000   0.2309401   0.0000000), wk =   0.0076190
        k(   14) = (   0.0000000   0.2309401   0.0530142), wk =   0.0152381
        k(   15) = (   0.0000000   0.2309401   0.1060285), wk =   0.0152381
        k(   16) = (   0.0000000   0.2309401   0.1590427), wk =   0.0152381
        k(   17) = (   0.0000000   0.3079201   0.0000000), wk =   0.0076190
        k(   18) = (   0.0000000   0.3079201   0.0530142), wk =   0.0152381
        k(   19) = (   0.0000000   0.3079201   0.1060285), wk =   0.0152381
        k(   20) = (   0.0000000   0.3079201   0.1590427), wk =   0.0152381
        k(   21) = (   0.0000000   0.3849002   0.0000000), wk =   0.0076190
        k(   22) = (   0.0000000   0.3849002   0.0530142), wk =   0.0152381
        k(   23) = (   0.0000000   0.3849002   0.1060285), wk =   0.0152381
        k(   24) = (   0.0000000   0.3849002   0.1590427), wk =   0.0152381
        k(   25) = (   0.0000000   0.4618802   0.0000000), wk =   0.0076190
        k(   26) = (   0.0000000   0.4618802   0.0530142), wk =   0.0152381
        k(   27) = (   0.0000000   0.4618802   0.1060285), wk =   0.0152381
        k(   28) = (   0.0000000   0.4618802   0.1590427), wk =   0.0152381
        k(   29) = (   0.0000000   0.5388603   0.0000000), wk =   0.0076190
        k(   30) = (   0.0000000   0.5388603   0.0530142), wk =   0.0152381
        k(   31) = (   0.0000000   0.5388603   0.1060285), wk =   0.0152381
        k(   32) = (   0.0000000   0.5388603   0.1590427), wk =   0.0152381
        k(   33) = (   0.0666667   0.1154701   0.0000000), wk =   0.0076190
        k(   34) = (   0.0666667   0.1154701   0.0530142), wk =   0.0152381
        k(   35) = (   0.0666667   0.1154701   0.1060285), wk =   0.0152381
        k(   36) = (   0.0666667   0.1154701   0.1590427), wk =   0.0152381
        k(   37) = (   0.0666667   0.1924501   0.0000000), wk =   0.0152381
        k(   38) = (   0.0666667   0.1924501   0.0530142), wk =   0.0304762
        k(   39) = (   0.0666667   0.1924501   0.1060285), wk =   0.0304762
        k(   40) = (   0.0666667   0.1924501   0.1590427), wk =   0.0304762
        k(   41) = (   0.0666667   0.2694301   0.0000000), wk =   0.0152381
        k(   42) = (   0.0666667   0.2694301   0.0530142), wk =   0.0304762
        k(   43) = (   0.0666667   0.2694301   0.1060285), wk =   0.0304762
        k(   44) = (   0.0666667   0.2694301   0.1590427), wk =   0.0304762
        k(   45) = (   0.0666667   0.3464102   0.0000000), wk =   0.0152381
        k(   46) = (   0.0666667   0.3464102   0.0530142), wk =   0.0304762
        k(   47) = (   0.0666667   0.3464102   0.1060285), wk =   0.0304762
        k(   48) = (   0.0666667   0.3464102   0.1590427), wk =   0.0304762
        k(   49) = (   0.0666667   0.4233902   0.0000000), wk =   0.0152381
        k(   50) = (   0.0666667   0.4233902   0.0530142), wk =   0.0304762
        k(   51) = (   0.0666667   0.4233902   0.1060285), wk =   0.0304762
        k(   52) = (   0.0666667   0.4233902   0.1590427), wk =   0.0304762
        k(   53) = (   0.0666667   0.5003702   0.0000000), wk =   0.0152381
        k(   54) = (   0.0666667   0.5003702   0.0530142), wk =   0.0304762
        k(   55) = (   0.0666667   0.5003702   0.1060285), wk =   0.0304762
        k(   56) = (   0.0666667   0.5003702   0.1590427), wk =   0.0304762
        k(   57) = (   0.0666667   0.5773503   0.0000000), wk =   0.0076190
        k(   58) = (   0.0666667   0.5773503   0.0530142), wk =   0.0152381
        k(   59) = (   0.0666667   0.5773503   0.1060285), wk =   0.0152381
        k(   60) = (   0.0666667   0.5773503   0.1590427), wk =   0.0152381
        k(   61) = (   0.1333333   0.2309401   0.0000000), wk =   0.0076190
        k(   62) = (   0.1333333   0.2309401   0.0530142), wk =   0.0152381
        k(   63) = (   0.1333333   0.2309401   0.1060285), wk =   0.0152381
        k(   64) = (   0.1333333   0.2309401   0.1590427), wk =   0.0152381
        k(   65) = (   0.1333333   0.3079201   0.0000000), wk =   0.0152381
        k(   66) = (   0.1333333   0.3079201   0.0530142), wk =   0.0304762
        k(   67) = (   0.1333333   0.3079201   0.1060285), wk =   0.0304762
        k(   68) = (   0.1333333   0.3079201   0.1590427), wk =   0.0304762
        k(   69) = (   0.1333333   0.3849002   0.0000000), wk =   0.0152381
        k(   70) = (   0.1333333   0.3849002   0.0530142), wk =   0.0304762
        k(   71) = (   0.1333333   0.3849002   0.1060285), wk =   0.0304762
        k(   72) = (   0.1333333   0.3849002   0.1590427), wk =   0.0304762
        k(   73) = (   0.1333333   0.4618802   0.0000000), wk =   0.0152381
        k(   74) = (   0.1333333   0.4618802   0.0530142), wk =   0.0304762
        k(   75) = (   0.1333333   0.4618802   0.1060285), wk =   0.0304762
        k(   76) = (   0.1333333   0.4618802   0.1590427), wk =   0.0304762
        k(   77) = (   0.1333333   0.5388603   0.0000000), wk =   0.0152381
        k(   78) = (   0.1333333   0.5388603   0.0530142), wk =   0.0304762
        k(   79) = (   0.1333333   0.5388603   0.1060285), wk =   0.0304762
        k(   80) = (   0.1333333   0.5388603   0.1590427), wk =   0.0304762
        k(   81) = (   0.2000000   0.3464102   0.0000000), wk =   0.0076190
        k(   82) = (   0.2000000   0.3464102   0.0530142), wk =   0.0152381
        k(   83) = (   0.2000000   0.3464102   0.1060285), wk =   0.0152381
        k(   84) = (   0.2000000   0.3464102   0.1590427), wk =   0.0152381
        k(   85) = (   0.2000000   0.4233902   0.0000000), wk =   0.0152381
        k(   86) = (   0.2000000   0.4233902   0.0530142), wk =   0.0304762
        k(   87) = (   0.2000000   0.4233902   0.1060285), wk =   0.0304762
        k(   88) = (   0.2000000   0.4233902   0.1590427), wk =   0.0304762
        k(   89) = (   0.2000000   0.5003702   0.0000000), wk =   0.0152381
        k(   90) = (   0.2000000   0.5003702   0.0530142), wk =   0.0304762
        k(   91) = (   0.2000000   0.5003702   0.1060285), wk =   0.0304762
        k(   92) = (   0.2000000   0.5003702   0.1590427), wk =   0.0304762
        k(   93) = (   0.2000000   0.5773503   0.0000000), wk =   0.0076190
        k(   94) = (   0.2000000   0.5773503   0.0530142), wk =   0.0152381
        k(   95) = (   0.2000000   0.5773503   0.1060285), wk =   0.0152381
        k(   96) = (   0.2000000   0.5773503   0.1590427), wk =   0.0152381
        k(   97) = (   0.2666667   0.4618802   0.0000000), wk =   0.0076190
        k(   98) = (   0.2666667   0.4618802   0.0530142), wk =   0.0152381
        k(   99) = (   0.2666667   0.4618802   0.1060285), wk =   0.0152381
        k(  100) = (   0.2666667   0.4618802   0.1590427), wk =   0.0152381
        k(  101) = (   0.2666667   0.5388603   0.0000000), wk =   0.0152381
        k(  102) = (   0.2666667   0.5388603   0.0530142), wk =   0.0304762
        k(  103) = (   0.2666667   0.5388603   0.1060285), wk =   0.0304762
        k(  104) = (   0.2666667   0.5388603   0.1590427), wk =   0.0304762
        k(  105) = (   0.3333333   0.5773503   0.0000000), wk =   0.0025397
        k(  106) = (   0.3333333   0.5773503   0.0530142), wk =   0.0050794
        k(  107) = (   0.3333333   0.5773503   0.1060285), wk =   0.0050794
        k(  108) = (   0.3333333   0.5773503   0.1590427), wk =   0.0050794

                       cryst. coord.
        k(    1) = (   0.0000000   0.0000000   0.0000000), wk =   0.0012698
        k(    2) = (   0.0000000   0.0000000   0.1428571), wk =   0.0025397
        k(    3) = (   0.0000000   0.0000000   0.2857143), wk =   0.0025397
        k(    4) = (   0.0000000   0.0000000   0.4285714), wk =   0.0025397
        k(    5) = (   0.0000000   0.0666667   0.0000000), wk =   0.0076190
        k(    6) = (   0.0000000   0.0666667   0.1428571), wk =   0.0152381
        k(    7) = (   0.0000000   0.0666667   0.2857143), wk =   0.0152381
        k(    8) = (   0.0000000   0.0666667   0.4285714), wk =   0.0152381
        k(    9) = (   0.0000000   0.1333333   0.0000000), wk =   0.0076190
        k(   10) = (   0.0000000   0.1333333   0.1428571), wk =   0.0152381
        k(   11) = (   0.0000000   0.1333333   0.2857143), wk =   0.0152381
        k(   12) = (   0.0000000   0.1333333   0.4285714), wk =   0.0152381
        k(   13) = (   0.0000000   0.2000000   0.0000000), wk =   0.0076190
        k(   14) = (   0.0000000   0.2000000   0.1428571), wk =   0.0152381
        k(   15) = (   0.0000000   0.2000000   0.2857143), wk =   0.0152381
        k(   16) = (   0.0000000   0.2000000   0.4285714), wk =   0.0152381
        k(   17) = (   0.0000000   0.2666667   0.0000000), wk =   0.0076190
        k(   18) = (   0.0000000   0.2666667   0.1428571), wk =   0.0152381
        k(   19) = (   0.0000000   0.2666667   0.2857143), wk =   0.0152381
        k(   20) = (   0.0000000   0.2666667   0.4285714), wk =   0.0152381
        k(   21) = (   0.0000000   0.3333333   0.0000000), wk =   0.0076190
        k(   22) = (   0.0000000   0.3333333   0.1428571), wk =   0.0152381
        k(   23) = (   0.0000000   0.3333333   0.2857143), wk =   0.0152381
        k(   24) = (   0.0000000   0.3333333   0.4285714), wk =   0.0152381
        k(   25) = (   0.0000000   0.4000000   0.0000000), wk =   0.0076190
        k(   26) = (   0.0000000   0.4000000   0.1428571), wk =   0.0152381
        k(   27) = (   0.0000000   0.4000000   0.2857143), wk =   0.0152381
        k(   28) = (   0.0000000   0.4000000   0.4285714), wk =   0.0152381
        k(   29) = (   0.0000000   0.4666667   0.0000000), wk =   0.0076190
        k(   30) = (   0.0000000   0.4666667   0.1428571), wk =   0.0152381
        k(   31) = (   0.0000000   0.4666667   0.2857143), wk =   0.0152381
        k(   32) = (   0.0000000   0.4666667   0.4285714), wk =   0.0152381
        k(   33) = (   0.0666667   0.0666667   0.0000000), wk =   0.0076190
        k(   34) = (   0.0666667   0.0666667   0.1428571), wk =   0.0152381
        k(   35) = (   0.0666667   0.0666667   0.2857143), wk =   0.0152381
        k(   36) = (   0.0666667   0.0666667   0.4285714), wk =   0.0152381
        k(   37) = (   0.0666667   0.1333333   0.0000000), wk =   0.0152381
        k(   38) = (   0.0666667   0.1333333   0.1428571), wk =   0.0304762
        k(   39) = (   0.0666667   0.1333333   0.2857143), wk =   0.0304762
        k(   40) = (   0.0666667   0.1333333   0.4285714), wk =   0.0304762
        k(   41) = (   0.0666667   0.2000000   0.0000000), wk =   0.0152381
        k(   42) = (   0.0666667   0.2000000   0.1428571), wk =   0.0304762
        k(   43) = (   0.0666667   0.2000000   0.2857143), wk =   0.0304762
        k(   44) = (   0.0666667   0.2000000   0.4285714), wk =   0.0304762
        k(   45) = (   0.0666667   0.2666667   0.0000000), wk =   0.0152381
        k(   46) = (   0.0666667   0.2666667   0.1428571), wk =   0.0304762
        k(   47) = (   0.0666667   0.2666667   0.2857143), wk =   0.0304762
        k(   48) = (   0.0666667   0.2666667   0.4285714), wk =   0.0304762
        k(   49) = (   0.0666667   0.3333333   0.0000000), wk =   0.0152381
        k(   50) = (   0.0666667   0.3333333   0.1428571), wk =   0.0304762
        k(   51) = (   0.0666667   0.3333333   0.2857143), wk =   0.0304762
        k(   52) = (   0.0666667   0.3333333   0.4285714), wk =   0.0304762
        k(   53) = (   0.0666667   0.4000000   0.0000000), wk =   0.0152381
        k(   54) = (   0.0666667   0.4000000   0.1428571), wk =   0.0304762
        k(   55) = (   0.0666667   0.4000000   0.2857143), wk =   0.0304762
        k(   56) = (   0.0666667   0.4000000   0.4285714), wk =   0.0304762
        k(   57) = (   0.0666667   0.4666667   0.0000000), wk =   0.0076190
        k(   58) = (   0.0666667   0.4666667   0.1428571), wk =   0.0152381
        k(   59) = (   0.0666667   0.4666667   0.2857143), wk =   0.0152381
        k(   60) = (   0.0666667   0.4666667   0.4285714), wk =   0.0152381
        k(   61) = (   0.1333333   0.1333333   0.0000000), wk =   0.0076190
        k(   62) = (   0.1333333   0.1333333   0.1428571), wk =   0.0152381
        k(   63) = (   0.1333333   0.1333333   0.2857143), wk =   0.0152381
        k(   64) = (   0.1333333   0.1333333   0.4285714), wk =   0.0152381
        k(   65) = (   0.1333333   0.2000000   0.0000000), wk =   0.0152381
        k(   66) = (   0.1333333   0.2000000   0.1428571), wk =   0.0304762
        k(   67) = (   0.1333333   0.2000000   0.2857143), wk =   0.0304762
        k(   68) = (   0.1333333   0.2000000   0.4285714), wk =   0.0304762
        k(   69) = (   0.1333333   0.2666667   0.0000000), wk =   0.0152381
        k(   70) = (   0.1333333   0.2666667   0.1428571), wk =   0.0304762
        k(   71) = (   0.1333333   0.2666667   0.2857143), wk =   0.0304762
        k(   72) = (   0.1333333   0.2666667   0.4285714), wk =   0.0304762
        k(   73) = (   0.1333333   0.3333333   0.0000000), wk =   0.0152381
        k(   74) = (   0.1333333   0.3333333   0.1428571), wk =   0.0304762
        k(   75) = (   0.1333333   0.3333333   0.2857143), wk =   0.0304762
        k(   76) = (   0.1333333   0.3333333   0.4285714), wk =   0.0304762
        k(   77) = (   0.1333333   0.4000000   0.0000000), wk =   0.0152381
        k(   78) = (   0.1333333   0.4000000   0.1428571), wk =   0.0304762
        k(   79) = (   0.1333333   0.4000000   0.2857143), wk =   0.0304762
        k(   80) = (   0.1333333   0.4000000   0.4285714), wk =   0.0304762
        k(   81) = (   0.2000000   0.2000000   0.0000000), wk =   0.0076190
        k(   82) = (   0.2000000   0.2000000   0.1428571), wk =   0.0152381
        k(   83) = (   0.2000000   0.2000000   0.2857143), wk =   0.0152381
        k(   84) = (   0.2000000   0.2000000   0.4285714), wk =   0.0152381
        k(   85) = (   0.2000000   0.2666667   0.0000000), wk =   0.0152381
        k(   86) = (   0.2000000   0.2666667   0.1428571), wk =   0.0304762
        k(   87) = (   0.2000000   0.2666667   0.2857143), wk =   0.0304762
        k(   88) = (   0.2000000   0.2666667   0.4285714), wk =   0.0304762
        k(   89) = (   0.2000000   0.3333333   0.0000000), wk =   0.0152381
        k(   90) = (   0.2000000   0.3333333   0.1428571), wk =   0.0304762
        k(   91) = (   0.2000000   0.3333333   0.2857143), wk =   0.0304762
        k(   92) = (   0.2000000   0.3333333   0.4285714), wk =   0.0304762
        k(   93) = (   0.2000000   0.4000000   0.0000000), wk =   0.0076190
        k(   94) = (   0.2000000   0.4000000   0.1428571), wk =   0.0152381
        k(   95) = (   0.2000000   0.4000000   0.2857143), wk =   0.0152381
        k(   96) = (   0.2000000   0.4000000   0.4285714), wk =   0.0152381
        k(   97) = (   0.2666667   0.2666667   0.0000000), wk =   0.0076190
        k(   98) = (   0.2666667   0.2666667   0.1428571), wk =   0.0152381
        k(   99) = (   0.2666667   0.2666667   0.2857143), wk =   0.0152381
        k(  100) = (   0.2666667   0.2666667   0.4285714), wk =   0.0152381
        k(  101) = (   0.2666667   0.3333333   0.0000000), wk =   0.0152381
        k(  102) = (   0.2666667   0.3333333   0.1428571), wk =   0.0304762
        k(  103) = (   0.2666667   0.3333333   0.2857143), wk =   0.0304762
        k(  104) = (   0.2666667   0.3333333   0.4285714), wk =   0.0304762
        k(  105) = (   0.3333333   0.3333333   0.0000000), wk =   0.0025397
        k(  106) = (   0.3333333   0.3333333   0.1428571), wk =   0.0050794
        k(  107) = (   0.3333333   0.3333333   0.2857143), wk =   0.0050794
        k(  108) = (   0.3333333   0.3333333   0.4285714), wk =   0.0050794

     Dense  grid:    31645 G-vectors     FFT dimensions: (  30,  30,  80)

     Smooth grid:    11241 G-vectors     FFT dimensions: (  24,  24,  60)

     Dynamical RAM for                 wfc:       0.06 MB

     Dynamical RAM for     wfc (w. buffer):       0.06 MB

     Dynamical RAM for           str. fact:       0.12 MB

     Dynamical RAM for           local pot:       0.00 MB

     Dynamical RAM for          nlocal pot:       0.17 MB

     Dynamical RAM for                qrad:       0.46 MB

     Dynamical RAM for          rho,v,vnew:       0.77 MB

     Dynamical RAM for           G-vectors:       0.47 MB

     Dynamical RAM for          h,s,v(r/c):       0.03 MB

     Dynamical RAM for          <psi|beta>:       0.01 MB

     Dynamical RAM for                 psi:       0.13 MB

     Dynamical RAM for                hpsi:       0.13 MB

     Dynamical RAM for                spsi:       0.13 MB

     Dynamical RAM for      wfcinit/wfcrot:       0.18 MB

     Dynamical RAM for           addusdens:       5.67 MB

     Estimated static dynamical RAM per process >       2.99 MB

     Estimated max dynamical RAM per process >       8.67 MB

     Estimated total dynamical RAM >      34.66 MB

     Check: negative core charge=   -0.000006

     The potential is recalculated from file :
     ./temp/graphite.save/charge-density

     Starting wfcs are   16 randomized atomic wfcs
     Checking if some PAW data can be deallocated... 

     Band Structure Calculation
     Davidson diagonalization with overlap

     Computing kpt #:     1  of   108
     total cpu time spent up to now is        0.9 secs

     Computing kpt #:     2  of   108
     total cpu time spent up to now is        1.1 secs

     Computing kpt #:     3  of   108
     c_bands:  1 eigenvalues not converged
     total cpu time spent up to now is        1.4 secs

     Computing kpt #:     4  of   108
     total cpu time spent up to now is        1.7 secs

     Computing kpt #:     5  of   108
     total cpu time spent up to now is        2.0 secs

     Computing kpt #:     6  of   108
     total cpu time spent up to now is        2.2 secs

     Computing kpt #:     7  of   108
     total cpu time spent up to now is        2.6 secs

     Computing kpt #:     8  of   108
     total cpu time spent up to now is        2.9 secs

     Computing kpt #:     9  of   108
     total cpu time spent up to now is        3.2 secs

     Computing kpt #:    10  of   108
     total cpu time spent up to now is        3.5 secs

     Computing kpt #:    11  of   108
     total cpu time spent up to now is        3.7 secs

     Computing kpt #:    12  of   108
     total cpu time spent up to now is        3.9 secs

     Computing kpt #:    13  of   108
     total cpu time spent up to now is        4.2 secs

     Computing kpt #:    14  of   108
     total cpu time spent up to now is        4.4 secs

     Computing kpt #:    15  of   108
     total cpu time spent up to now is        4.7 secs

     Computing kpt #:    16  of   108
     total cpu time spent up to now is        5.0 secs

     Computing kpt #:    17  of   108
     total cpu time spent up to now is        5.3 secs

     Computing kpt #:    18  of   108
     total cpu time spent up to now is        5.5 secs

     Computing kpt #:    19  of   108
     total cpu time spent up to now is        5.7 secs

     Computing kpt #:    20  of   108
     total cpu time spent up to now is        5.9 secs

     Computing kpt #:    21  of   108
     total cpu time spent up to now is        6.1 secs

     Computing kpt #:    22  of   108
     total cpu time spent up to now is        6.3 secs

     Computing kpt #:    23  of   108
     total cpu time spent up to now is        6.4 secs

     Computing kpt #:    24  of   108
     total cpu time spent up to now is        6.6 secs

     Computing kpt #:    25  of   108
     total cpu time spent up to now is        6.8 secs

     Computing kpt #:    26  of   108
     total cpu time spent up to now is        6.9 secs

     Computing kpt #:    27  of   108
     total cpu time spent up to now is        7.1 secs

     Computing kpt #:    28  of   108
     total cpu time spent up to now is        7.2 secs

     Computing kpt #:    29  of   108
     total cpu time spent up to now is        7.4 secs

     Computing kpt #:    30  of   108
     total cpu time spent up to now is        7.5 secs

     Computing kpt #:    31  of   108
     total cpu time spent up to now is        7.6 secs

     Computing kpt #:    32  of   108
     total cpu time spent up to now is        7.8 secs

     Computing kpt #:    33  of   108
     c_bands:  1 eigenvalues not converged
     total cpu time spent up to now is        8.1 secs

     Computing kpt #:    34  of   108
     c_bands:  1 eigenvalues not converged
     total cpu time spent up to now is        8.4 secs

     Computing kpt #:    35  of   108
     total cpu time spent up to now is        8.7 secs

     Computing kpt #:    36  of   108
     total cpu time spent up to now is        8.9 secs

     Computing kpt #:    37  of   108
     total cpu time spent up to now is        9.2 secs

     Computing kpt #:    38  of   108
     total cpu time spent up to now is        9.4 secs

     Computing kpt #:    39  of   108
     total cpu time spent up to now is        9.7 secs

     Computing kpt #:    40  of   108
     total cpu time spent up to now is       10.0 secs

     Computing kpt #:    41  of   108
     total cpu time spent up to now is       10.2 secs

     Computing kpt #:    42  of   108
     total cpu time spent up to now is       10.5 secs

     Computing kpt #:    43  of   108
     total cpu time spent up to now is       10.8 secs

     Computing kpt #:    44  of   108
     total cpu time spent up to now is       11.0 secs

     Computing kpt #:    45  of   108
     total cpu time spent up to now is       11.2 secs

     Computing kpt #:    46  of   108
     total cpu time spent up to now is       11.4 secs

     Computing kpt #:    47  of   108
     total cpu time spent up to now is       11.6 secs

     Computing kpt #:    48  of   108
     total cpu time spent up to now is       11.9 secs

     Computing kpt #:    49  of   108
     total cpu time spent up to now is       12.1 secs

     Computing kpt #:    50  of   108
     total cpu time spent up to now is       12.2 secs

     Computing kpt #:    51  of   108
     total cpu time spent up to now is       12.4 secs

     Computing kpt #:    52  of   108
     total cpu time spent up to now is       12.6 secs

     Computing kpt #:    53  of   108
     total cpu time spent up to now is       12.7 secs

     Computing kpt #:    54  of   108
     total cpu time spent up to now is       12.9 secs

     Computing kpt #:    55  of   108
     total cpu time spent up to now is       13.0 secs

     Computing kpt #:    56  of   108
     total cpu time spent up to now is       13.2 secs

     Computing kpt #:    57  of   108
     total cpu time spent up to now is       13.3 secs

     Computing kpt #:    58  of   108
     total cpu time spent up to now is       13.5 secs

     Computing kpt #:    59  of   108
     total cpu time spent up to now is       13.6 secs

     Computing kpt #:    60  of   108
     total cpu time spent up to now is       13.8 secs

     Computing kpt #:    61  of   108
     total cpu time spent up to now is       14.0 secs

     Computing kpt #:    62  of   108
     total cpu time spent up to now is       14.2 secs

     Computing kpt #:    63  of   108
     total cpu time spent up to now is       14.4 secs

     Computing kpt #:    64  of   108
     total cpu time spent up to now is       14.7 secs

     Computing kpt #:    65  of   108
     total cpu time spent up to now is       14.9 secs

     Computing kpt #:    66  of   108
     total cpu time spent up to now is       15.1 secs

     Computing kpt #:    67  of   108
     total cpu time spent up to now is       15.3 secs

     Computing kpt #:    68  of   108
     total cpu time spent up to now is       15.5 secs

     Computing kpt #:    69  of   108
     total cpu time spent up to now is       15.7 secs

     Computing kpt #:    70  of   108
     total cpu time spent up to now is       16.0 secs

     Computing kpt #:    71  of   108
     total cpu time spent up to now is       16.2 secs

     Computing kpt #:    72  of   108
     total cpu time spent up to now is       16.4 secs

     Computing kpt #:    73  of   108
     total cpu time spent up to now is       16.6 secs

     Computing kpt #:    74  of   108
     total cpu time spent up to now is       16.8 secs

     Computing kpt #:    75  of   108
     total cpu time spent up to now is       17.0 secs

     Computing kpt #:    76  of   108
     total cpu time spent up to now is       17.1 secs

     Computing kpt #:    77  of   108
     total cpu time spent up to now is       17.3 secs

     Computing kpt #:    78  of   108
     total cpu time spent up to now is       17.4 secs

     Computing kpt #:    79  of   108
     total cpu time spent up to now is       17.6 secs

     Computing kpt #:    80  of   108
     total cpu time spent up to now is       17.7 secs

     Computing kpt #:    81  of   108
     total cpu time spent up to now is       18.0 secs

     Computing kpt #:    82  of   108
     total cpu time spent up to now is       18.2 secs

     Computing kpt #:    83  of   108
     total cpu time spent up to now is       18.4 secs

     Computing kpt #:    84  of   108
     total cpu time spent up to now is       18.6 secs

     Computing kpt #:    85  of   108
     total cpu time spent up to now is       18.8 secs

     Computing kpt #:    86  of   108
     total cpu time spent up to now is       19.0 secs

     Computing kpt #:    87  of   108
     total cpu time spent up to now is       19.3 secs

     Computing kpt #:    88  of   108
     total cpu time spent up to now is       19.6 secs

     Computing kpt #:    89  of   108
     total cpu time spent up to now is       19.8 secs

     Computing kpt #:    90  of   108
     total cpu time spent up to now is       20.0 secs

     Computing kpt #:    91  of   108
     total cpu time spent up to now is       20.1 secs

     Computing kpt #:    92  of   108
     total cpu time spent up to now is       20.3 secs

     Computing kpt #:    93  of   108
     total cpu time spent up to now is       20.5 secs

     Computing kpt #:    94  of   108
     total cpu time spent up to now is       20.7 secs

     Computing kpt #:    95  of   108
     total cpu time spent up to now is       20.9 secs

     Computing kpt #:    96  of   108
     total cpu time spent up to now is       21.1 secs

     Computing kpt #:    97  of   108
     total cpu time spent up to now is       21.3 secs

     Computing kpt #:    98  of   108
     total cpu time spent up to now is       21.5 secs

     Computing kpt #:    99  of   108
     total cpu time spent up to now is       21.7 secs

     Computing kpt #:   100  of   108
     total cpu time spent up to now is       21.9 secs

     Computing kpt #:   101  of   108
     c_bands:  2 eigenvalues not converged
     total cpu time spent up to now is       22.2 secs

     Computing kpt #:   102  of   108
     total cpu time spent up to now is       22.3 secs

     Computing kpt #:   103  of   108
     total cpu time spent up to now is       22.5 secs

     Computing kpt #:   104  of   108
     total cpu time spent up to now is       22.7 secs

     Computing kpt #:   105  of   108
     total cpu time spent up to now is       22.9 secs

     Computing kpt #:   106  of   108
     total cpu time spent up to now is       23.1 secs

     Computing kpt #:   107  of   108
     total cpu time spent up to now is       23.2 secs

     Computing kpt #:   108  of   108
     total cpu time spent up to now is       23.4 secs

     ethr =  6.25E-12,  avg # of iterations = 57.4

     total cpu time spent up to now is       23.5 secs

     End of band structure calculation

          k = 0.0000 0.0000 0.0000 (  1385 PWs)   bands (ev):

   -12.5730 -12.2331  -1.5640   0.5844   4.1444   4.1444   4.1655   4.1655
    11.2522  15.4887  15.4887  15.5478

     occupation numbers 
     1.0000   1.0000   1.0000   1.0000   1.0000   1.0000   1.0000   1.0000
     0.0000   0.0000   0.0000   0.0000

          k = 0.0000 0.0000 0.0530 (  1372 PWs)   bands (ev):

   -12.5573 -12.2511  -1.4749   0.4516   4.1455   4.1455   4.1644   4.1644
    11.5179  15.4915  15.4915  15.5448

     occupation numbers 
     1.0000   1.0000   1.0000   1.0000   1.0000   1.0000   1.0000   1.0000
     0.0000   0.0000   0.0000   0.0000

          k = 0.0000 0.0000 0.1060 (  1390 PWs)   bands (ev):

   -12.5128 -12.3011  -1.2190   0.1007   4.1484   4.1484   4.1615   4.1615
    12.2640  15.4994  15.4994  15.5363

     occupation numbers 
     1.0000   1.0000   1.0000   1.0000   1.0000   1.0000   1.0000   1.0000
     0.0000   0.0000   0.0000   0.0000

          k = 0.0000 0.0000 0.1590 (  1402 PWs)   bands (ev):

   -12.4468 -12.3713  -0.8292  -0.3619   4.1526   4.1526   4.1573   4.1573
    13.3716  14.7010  15.5110  15.5110

     occupation numbers 
     1.0000   1.0000   1.0000   1.0000   1.0000   1.0000   1.0000   1.0000
     0.0000   0.0000   0.0000   0.0000

          k = 0.0000 0.0770 0.0000 (  1387 PWs)   bands (ev):

   -12.4663 -12.1285  -1.4336   0.7059   3.7127   3.7457   3.9142   3.9434
    11.3802  15.5266  15.6074  15.9453

     occupation numbers 
     1.0000   1.0000   1.0000   1.0000   1.0000   1.0000   1.0000   1.0000
     0.0000   0.0000   0.0000   0.0000

          k = 0.0000 0.0770 0.0530 (  1385 PWs)   bands (ev):

   -12.4507 -12.1465  -1.3449   0.5737   3.7143   3.7440   3.9156   3.9419
    11.6445  15.5284  15.6037  15.9481

     occupation numbers 
     1.0000   1.0000   1.0000   1.0000   1.0000   1.0000   1.0000   1.0000
     0.0000   0.0000   0.0000   0.0000

          k = 0.0000 0.0770 0.1060 (  1393 PWs)   bands (ev):

   -12.4064 -12.1961  -1.0900   0.2244   3.7189   3.7394   3.9197   3.9379
    12.3866  15.5256  15.5935  15.9560

     occupation numbers 
     1.0000   1.0000   1.0000   1.0000   1.0000   1.0000   1.0000   1.0000
     0.0000   0.0000   0.0000   0.0000

          k = 0.0000 0.0770 0.1590 (  1393 PWs)   bands (ev):

   -12.3409 -12.2659  -0.7017  -0.2362   3.7255   3.7328   3.9255   3.9320
    13.4872  14.7991  15.5751  15.5816

     occupation numbers 
     1.0000   1.0000   1.0000   1.0000   1.0000   1.0000   1.0000   1.0000
     0.0000   0.0000   0.0000   0.0000

          k = 0.0000 0.1540 0.0000 (  1393 PWs)   bands (ev):

   -12.1469 -11.8156  -1.0443   1.0677   2.5677   2.6261   3.3357   3.3771
    11.7654  15.5088  15.6612  17.1148

     occupation numbers 
     1.0000   1.0000   1.0000   1.0000   1.0000   1.0000   1.0000   1.0000
     0.0000   0.0000   0.0000   0.0000

          k = 0.0000 0.1540 0.0530 (  1393 PWs)   bands (ev):

   -12.1316 -11.8332  -0.9567   0.9375   2.5706   2.6232   3.3378   3.3751
    12.0254  15.5105  15.6537  17.1298

     occupation numbers 
     1.0000   1.0000   1.0000   1.0000   1.0000   1.0000   1.0000   1.0000
     0.0000   0.0000   0.0000   0.0000

          k = 0.0000 0.1540 0.1060 (  1397 PWs)   bands (ev):

   -12.0881 -11.8818  -0.7047   0.5933   2.5786   2.6151   3.3435   3.3693
    12.7549  15.5044  15.6340  16.5386

     occupation numbers 
     1.0000   1.0000   1.0000   1.0000   1.0000   1.0000   1.0000   1.0000
     0.0000   0.0000   0.0000   0.0000

          k = 0.0000 0.1540 0.1590 (  1404 PWs)   bands (ev):

   -12.0238 -11.9502  -0.3210   0.1388   2.5903   2.6033   3.3518   3.3610
    13.8324  15.0721  15.6134  15.6557

     occupation numbers 
     1.0000   1.0000   1.0000   1.0000   1.0000   1.0000   1.0000   1.0000
     0.0000   0.0000   0.0000   0.0000

          k = 0.0000 0.2309 0.0000 (  1393 PWs)   bands (ev):

   -11.6171 -11.2965  -0.4016   0.9978   1.0869   1.6609   2.6168   2.6671
    12.4074  15.3198  15.5134  15.5711

     occupation numbers 
     1.0000   1.0000   1.0000   1.0000   1.0000   1.0000   1.0000   1.0000
     0.0000   0.0000   0.0000   0.0000

          k = 0.0000 0.2309 0.0530 (  1388 PWs)   bands (ev):

   -11.6022 -11.3135  -0.3157   1.0020   1.0824   1.5345   2.6193   2.6646
    12.6584  15.3133  15.5355  15.5698

     occupation numbers 
     1.0000   1.0000   1.0000   1.0000   1.0000   1.0000   1.0000   1.0000
     0.0000   0.0000   0.0000   0.0000

          k = 0.0000 0.2309 0.1060 (  1395 PWs)   bands (ev):

   -11.5600 -11.3604  -0.0690   1.0135   1.0699   1.2004   2.6262   2.6576
    13.3597  15.3094  15.4929  15.6530

     occupation numbers 
     1.0000   1.0000   1.0000   1.0000   1.0000   1.0000   1.0000   1.0000
     0.0000   0.0000   0.0000   0.0000

          k = 0.0000 0.2309 0.1590 (  1398 PWs)   bands (ev):

   -11.4977 -11.4265   0.3063   0.7552   1.0329   1.0522   2.6363   2.6475
    14.3722  15.2311  15.4534  15.6375

     occupation numbers 
     1.0000   1.0000   1.0000   1.0000   1.0000   1.0000   1.0000   1.0000
     0.0000   0.0000   0.0000   0.0000

          k = 0.0000 0.3079 0.0000 (  1395 PWs)   bands (ev):

   -10.8810 -10.5751  -0.7594  -0.6383   0.4828   1.9196   1.9757   2.4656
    13.2987  13.6026  14.3764  15.0313

     occupation numbers 
     1.0000   1.0000   1.0000   1.0000   1.0000   1.0000   1.0000   1.0000
     0.0000   0.0000   0.0000   0.0000

          k = 0.0000 0.3079 0.0530 (  1399 PWs)   bands (ev):

   -10.8667 -10.5913  -0.7535  -0.6445   0.5658   1.9223   1.9729   2.3452
    13.4537  13.7214  14.3260  15.0468

     occupation numbers 
     1.0000   1.0000   1.0000   1.0000   1.0000   1.0000   1.0000   1.0000
     0.0000   0.0000   0.0000   0.0000

          k = 0.0000 0.3079 0.1060 (  1401 PWs)   bands (ev):

   -10.8264 -10.6359  -0.7371  -0.6616   0.8046   1.9301   1.9651   2.0254
    13.6419  14.1823  14.2981  15.0870

     occupation numbers 
     1.0000   1.0000   1.0000   1.0000   1.0000   1.0000   1.0000   1.0000
     0.0000   0.0000   0.0000   0.0000

          k = 0.0000 0.3079 0.1590 (  1399 PWs)   bands (ev):

   -10.7668 -10.6989  -0.7131  -0.6862   1.1673   1.6001   1.9413   1.9538
    13.8161  14.0068  15.0082  15.1259

     occupation numbers 
     1.0000   1.0000   1.0000   1.0000   1.0000   1.0000   1.0000   1.0000
     0.0000   0.0000   0.0000   0.0000

          k = 0.0000 0.3849 0.0000 (  1405 PWs)   bands (ev):

    -9.9458  -9.6586  -2.5501  -2.3978   1.3406   1.4004   1.5838   3.4355
    11.6134  12.6161  14.3826  14.7691

     occupation numbers 
     1.0000   1.0000   1.0000   1.0000   1.0000   1.0000   1.0000   1.0000
     0.0000   0.0000   0.0000   0.0000

          k = 0.0000 0.3849 0.0530 (  1400 PWs)   bands (ev):

    -9.9324  -9.6738  -2.5428  -2.4056   1.3436   1.3974   1.6625   3.3255
    11.6466  12.5534  14.5658  14.8064

     occupation numbers 
     1.0000   1.0000   1.0000   1.0000   1.0000   1.0000   1.0000   1.0000
     0.0000   0.0000   0.0000   0.0000

          k = 0.0000 0.3849 0.1060 (  1403 PWs)   bands (ev):

    -9.8944  -9.7156  -2.5222  -2.4273   1.3518   1.3891   1.8884   3.0311
    11.7536  12.3854  14.7749  14.9403

     occupation numbers 
     1.0000   1.0000   1.0000   1.0000   1.0000   1.0000   1.0000   1.0000
     0.0000   0.0000   0.0000   0.0000

          k = 0.0000 0.3849 0.1590 (  1406 PWs)   bands (ev):

    -9.8383  -9.7745  -2.4921  -2.4583   1.3638   1.3771   2.2303   2.6359
    11.9340  12.1604  14.8612  14.9306

     occupation numbers 
     1.0000   1.0000   1.0000   1.0000   1.0000   1.0000   1.0000   1.0000
     0.0000   0.0000   0.0000   0.0000

          k = 0.0000 0.4619 0.0000 (  1409 PWs)   bands (ev):

    -8.8260  -8.5623  -4.2750  -4.0947   0.9327   0.9946   2.8396   4.4372
     9.8105  10.9235  14.5016  14.9075

     occupation numbers 
     1.0000   1.0000   1.0000   1.0000   1.0000   1.0000   1.0000   1.0000
     0.0000   0.0000   0.0000   0.0000

          k = 0.0000 0.4619 0.0530 (  1414 PWs)   bands (ev):

    -8.8136  -8.5761  -4.2665  -4.1040   0.9357   0.9915   2.9108   4.3486
     9.8432  10.8488  14.5231  14.8899

     occupation numbers 
     1.0000   1.0000   1.0000   1.0000   1.0000   1.0000   1.0000   1.0000
     0.0000   0.0000   0.0000   0.0000

          k = 0.0000 0.4619 0.1060 (  1403 PWs)   bands (ev):

    -8.7785  -8.6143  -4.2422  -4.1298   0.9443   0.9829   3.1138   4.1064
     9.9511  10.6510  14.5813  14.8364

     occupation numbers 
     1.0000   1.0000   1.0000   1.0000   1.0000   1.0000   1.0000   1.0000
     0.0000   0.0000   0.0000   0.0000

          k = 0.0000 0.4619 0.1590 (  1402 PWs)   bands (ev):

    -8.7269  -8.6683  -4.2067  -4.1667   0.9566   0.9704   3.4176   3.7711
    10.1414  10.3922  14.6640  14.7553

     occupation numbers 
     1.0000   1.0000   1.0000   1.0000   1.0000   1.0000   1.0000   1.0000
     0.0000   0.0000   0.0000   0.0000

          k = 0.0000 0.5389 0.0000 (  1399 PWs)   bands (ev):

    -7.5826  -7.3637  -5.8091  -5.6251   0.7229   0.7858   4.0266   5.0268
     8.7118   9.5922  14.3896  14.8327

     occupation numbers 
     1.0000   1.0000   1.0000   1.0000   1.0000   1.0000   1.0000   1.0000
     0.0000   0.0000   0.0000   0.0000

          k = 0.0000 0.5389 0.0530 (  1400 PWs)   bands (ev):

    -7.5720  -7.3748  -5.8008  -5.6350   0.7260   0.7827   4.0820   4.9897
     8.7127   9.5131  14.4106  14.8100

     occupation numbers 
     1.0000   1.0000   1.0000   1.0000   1.0000   1.0000   1.0000   1.0000
     0.0000   0.0000   0.0000   0.0000

          k = 0.0000 0.5389 0.1060 (  1411 PWs)   bands (ev):

    -7.5423  -7.4057  -5.7770  -5.6622   0.7346   0.7739   4.2364   4.8745
     8.7452   9.3102  14.4696  14.7464

     occupation numbers 
     1.0000   1.0000   1.0000   1.0000   1.0000   1.0000   1.0000   1.0000
     0.0000   0.0000   0.0000   0.0000

          k = 0.0000 0.5389 0.1590 (  1406 PWs)   bands (ev):

    -7.4988  -7.4501  -5.7415  -5.7005   0.7472   0.7612   4.4549   4.6855
     8.8597   9.0644  14.5565  14.6553

     occupation numbers 
     1.0000   1.0000   1.0000   1.0000   1.0000   1.0000   1.0000   1.0000
     0.0000   0.0000   0.0000   0.0000

          k = 0.0667 0.1155 0.0000 (  1393 PWs)   bands (ev):

   -12.2532 -11.9198  -1.1737   0.9476   2.9865   3.0186   3.4640   3.4889
    11.6372  15.6804  15.7878  16.6365

     occupation numbers 
     1.0000   1.0000   1.0000   1.0000   1.0000   1.0000   1.0000   1.0000
     0.0000   0.0000   0.0000   0.0000

          k = 0.0667 0.1155 0.0530 (  1399 PWs)   bands (ev):

   -12.2378 -11.9375  -1.0858   0.8167   2.9882   3.0172   3.4651   3.4875
    11.8988  15.6800  15.7831  16.6393

     occupation numbers 
     1.0000   1.0000   1.0000   1.0000   1.0000   1.0000   1.0000   1.0000
     0.0000   0.0000   0.0000   0.0000

          k = 0.0667 0.1155 0.1060 (  1390 PWs)   bands (ev):

   -12.1940 -11.9864  -0.8328   0.4708   2.9929   3.0130   3.4682   3.4838
    12.6329  15.6624  15.7713  16.4467

     occupation numbers 
     1.0000   1.0000   1.0000   1.0000   1.0000   1.0000   1.0000   1.0000
     0.0000   0.0000   0.0000   0.0000

          k = 0.0667 0.1155 0.1590 (  1401 PWs)   bands (ev):

   -12.1294 -12.0553  -0.4475   0.0142   2.9996   3.0068   3.4730   3.4786
    13.7195  14.9985  15.7584  15.7692

     occupation numbers 
     1.0000   1.0000   1.0000   1.0000   1.0000   1.0000   1.0000   1.0000
     0.0000   0.0000   0.0000   0.0000

          k = 0.0667 0.1925 0.0000 (  1393 PWs)   bands (ev):

   -11.8286 -11.5038  -0.6575   1.4255   1.7200   1.7808   2.7189   2.7605
    12.1527  15.7769  15.9632  16.1739

     occupation numbers 
     1.0000   1.0000   1.0000   1.0000   1.0000   1.0000   1.0000   1.0000
     0.0000   0.0000   0.0000   0.0000

          k = 0.0667 0.1925 0.0530 (  1390 PWs)   bands (ev):

   -11.8136 -11.5211  -0.5710   1.2974   1.7232   1.7779   2.7209   2.7584
    12.4083  15.7712  15.9475  16.2042

     occupation numbers 
     1.0000   1.0000   1.0000   1.0000   1.0000   1.0000   1.0000   1.0000
     0.0000   0.0000   0.0000   0.0000

          k = 0.0667 0.1925 0.1060 (  1398 PWs)   bands (ev):

   -11.7709 -11.5686  -0.3221   0.9585   1.7317   1.7696   2.7264   2.7524
    13.1247  15.7499  15.9103  16.2713

     occupation numbers 
     1.0000   1.0000   1.0000   1.0000   1.0000   1.0000   1.0000   1.0000
     0.0000   0.0000   0.0000   0.0000

          k = 0.0667 0.1925 0.1590 (  1398 PWs)   bands (ev):

   -11.7078 -11.6357   0.0568   0.5105   1.7440   1.7575   2.7346   2.7439
    14.1795  15.3636  15.8761  15.9352

     occupation numbers 
     1.0000   1.0000   1.0000   1.0000   1.0000   1.0000   1.0000   1.0000
     0.0000   0.0000   0.0000   0.0000

          k = 0.0667 0.2694 0.0000 (  1385 PWs)   bands (ev):

   -11.1956 -10.8836   0.1068   0.1124   0.2105   1.9462   2.0033   2.1262
    12.9235  14.4622  15.0616  15.6104

     occupation numbers 
     1.0000   1.0000   1.0000   1.0000   1.0000   1.0000   1.0000   1.0000
     0.0000   0.0000   0.0000   0.0000

          k = 0.0667 0.2694 0.0530 (  1396 PWs)   bands (ev):

   -11.1812 -10.9001   0.1170   0.1885   0.2084   1.9489   2.0003   2.0032
    13.1648  14.4929  15.0211  15.6238

     occupation numbers 
     1.0000   1.0000   1.0000   1.0000   1.0000   1.0000   1.0000   1.0000
     0.0000   0.0000   0.0000   0.0000

          k = 0.0667 0.2694 0.1060 (  1400 PWs)   bands (ev):

   -11.1401 -10.9457   0.1304   0.1912   0.4342   1.6762   1.9568   1.9923
    13.8272  14.5919  14.9140  15.6532

     occupation numbers 
     1.0000   1.0000   1.0000   1.0000   1.0000   1.0000   1.0000   1.0000
     0.0000   0.0000   0.0000   0.0000

          k = 0.0667 0.2694 0.1590 (  1400 PWs)   bands (ev):

   -11.0793 -11.0100   0.1499   0.1716   0.8024   1.2427   1.9681   1.9808
    14.5473  14.7659  14.9716  15.6216

     occupation numbers 
     1.0000   1.0000   1.0000   1.0000   1.0000   1.0000   1.0000   1.0000
     0.0000   0.0000   0.0000   0.0000

          k = 0.0667 0.3464 0.0000 (  1396 PWs)   bands (ev):

   -10.3600 -10.0646  -1.6328  -1.4999   1.1024   1.2754   1.3410   3.0205
    12.5416  13.3774  13.9378  15.3392

     occupation numbers 
     1.0000   1.0000   1.0000   1.0000   1.0000   1.0000   1.0000   1.0000
     0.0000   0.0000   0.0000   0.0000

          k = 0.0667 0.3464 0.0530 (  1394 PWs)   bands (ev):

   -10.3462 -10.0801  -1.6264  -1.5067   1.1832   1.2786   1.3377   2.9052
    12.5678  13.3273  14.1790  15.3557

     occupation numbers 
     1.0000   1.0000   1.0000   1.0000   1.0000   1.0000   1.0000   1.0000
     0.0000   0.0000   0.0000   0.0000

          k = 0.0667 0.3464 0.1060 (  1400 PWs)   bands (ev):

   -10.3072 -10.1232  -1.6084  -1.5255   1.2875   1.3284   1.4155   2.5976
    12.6590  13.1915  14.8156  15.4010

     occupation numbers 
     1.0000   1.0000   1.0000   1.0000   1.0000   1.0000   1.0000   1.0000
     0.0000   0.0000   0.0000   0.0000

          k = 0.0667 0.3464 0.1590 (  1402 PWs)   bands (ev):

   -10.2496 -10.1840  -1.5820  -1.5525   1.3006   1.3152   1.7677   2.1870
    12.8147  13.0060  15.3905  15.4540

     occupation numbers 
     1.0000   1.0000   1.0000   1.0000   1.0000   1.0000   1.0000   1.0000
     0.0000   0.0000   0.0000   0.0000

          k = 0.0667 0.4234 0.0000 (  1402 PWs)   bands (ev):

    -9.3316  -9.0570  -3.3776  -3.2133   0.7665   0.8368   2.2917   4.0342
    10.6417  11.6703  15.0000  15.2114

     occupation numbers 
     1.0000   1.0000   1.0000   1.0000   1.0000   1.0000   1.0000   1.0000
     0.0000   0.0000   0.0000   0.0000

          k = 0.0667 0.4234 0.0530 (  1397 PWs)   bands (ev):

    -9.3187  -9.0714  -3.3698  -3.2217   0.7699   0.8333   2.3670   3.9330
    10.6772  11.6065  15.0564  15.2999

     occupation numbers 
     1.0000   1.0000   1.0000   1.0000   1.0000   1.0000   1.0000   1.0000
     0.0000   0.0000   0.0000   0.0000

          k = 0.0667 0.4234 0.1060 (  1403 PWs)   bands (ev):

    -9.2823  -9.1112  -3.3476  -3.2452   0.7796   0.8234   2.5825   3.6603
    10.7881  11.4349  15.1338  15.3533

     occupation numbers 
     1.0000   1.0000   1.0000   1.0000   1.0000   1.0000   1.0000   1.0000
     0.0000   0.0000   0.0000   0.0000

          k = 0.0667 0.4234 0.1590 (  1403 PWs)   bands (ev):

    -9.2286  -9.1676  -3.3152  -3.2787   0.7936   0.8092   2.9075   3.2905
    10.9726  11.2044  15.2163  15.2987

     occupation numbers 
     1.0000   1.0000   1.0000   1.0000   1.0000   1.0000   1.0000   1.0000
     0.0000   0.0000   0.0000   0.0000

          k = 0.0667 0.5004 0.0000 (  1401 PWs)   bands (ev):

    -8.1360  -7.8895  -5.0212  -4.8332   0.4510   0.5238   3.5661   4.9223
     9.1134  10.1232  14.8950  15.3386

     occupation numbers 
     1.0000   1.0000   1.0000   1.0000   1.0000   1.0000   1.0000   1.0000
     0.0000   0.0000   0.0000   0.0000

          k = 0.0667 0.5004 0.0530 (  1407 PWs)   bands (ev):

    -8.1244  -7.9024  -5.0123  -4.8430   0.4545   0.5201   3.6307   4.8549
     9.1346  10.0497  14.9162  15.3160

     occupation numbers 
     1.0000   1.0000   1.0000   1.0000   1.0000   1.0000   1.0000   1.0000
     0.0000   0.0000   0.0000   0.0000

          k = 0.0667 0.5004 0.1060 (  1402 PWs)   bands (ev):

    -8.0914  -7.9379  -4.9873  -4.8700   0.4645   0.5099   3.8136   4.6641
     9.2152   9.8564  14.9757  15.2525

     occupation numbers 
     1.0000   1.0000   1.0000   1.0000   1.0000   1.0000   1.0000   1.0000
     0.0000   0.0000   0.0000   0.0000

          k = 0.0667 0.5004 0.1590 (  1402 PWs)   bands (ev):

    -8.0431  -7.9883  -4.9504  -4.9085   0.4790   0.4952   4.0827   4.3871
     9.3773   9.6083  15.0626  15.1614

     occupation numbers 
     1.0000   1.0000   1.0000   1.0000   1.0000   1.0000   1.0000   1.0000
     0.0000   0.0000   0.0000   0.0000

          k = 0.0667 0.5774 0.0000 (  1406 PWs)   bands (ev):

    -7.0920  -6.9663  -6.1116  -6.0174   0.3442   0.4178   4.3885   5.1319
     8.6052   9.2834  14.8371  15.2983

     occupation numbers 
     1.0000   1.0000   1.0000   1.0000   1.0000   1.0000   1.0000   1.0000
     0.0000   0.0000   0.0000   0.0000

          k = 0.0667 0.5774 0.0530 (  1411 PWs)   bands (ev):

    -7.0845  -6.9709  -6.1096  -6.0243   0.3478   0.4141   4.4369   5.1140
     8.5918   9.2107  14.8584  15.2743

     occupation numbers 
     1.0000   1.0000   1.0000   1.0000   1.0000   1.0000   1.0000   1.0000
     0.0000   0.0000   0.0000   0.0000

          k = 0.0667 0.5774 0.1060 (  1404 PWs)   bands (ev):

    -7.0642  -6.9849  -6.1023  -6.0426   0.3579   0.4038   4.5693   5.0497
     8.5858   9.0265  14.9186  15.2068

     occupation numbers 
     1.0000   1.0000   1.0000   1.0000   1.0000   1.0000   1.0000   1.0000
     0.0000   0.0000   0.0000   0.0000

          k = 0.0667 0.5774 0.1590 (  1397 PWs)   bands (ev):

    -7.0362  -7.0077  -6.0876  -6.0661   0.3726   0.3889   4.7488   4.9238
     8.6512   8.8123  15.0079  15.1107

     occupation numbers 
     1.0000   1.0000   1.0000   1.0000   1.0000   1.0000   1.0000   1.0000
     0.0000   0.0000   0.0000   0.0000

          k = 0.1333 0.2309 0.0000 (  1391 PWs)   bands (ev):

   -11.3009 -10.9868  -0.0192   0.6255   0.6773   1.7441   1.7813   2.0121
    12.7996  14.8301  15.2947  16.4287

     occupation numbers 
     1.0000   1.0000   1.0000   1.0000   1.0000   1.0000   1.0000   1.0000
     0.0000   0.0000   0.0000   0.0000

          k = 0.1333 0.2309 0.0530 (  1395 PWs)   bands (ev):

   -11.2863 -11.0034   0.0654   0.6281   0.6750   1.7457   1.7791   1.8881
    13.0469  14.8496  15.2668  16.4340

     occupation numbers 
     1.0000   1.0000   1.0000   1.0000   1.0000   1.0000   1.0000   1.0000
     0.0000   0.0000   0.0000   0.0000

          k = 0.1333 0.2309 0.1060 (  1396 PWs)   bands (ev):

   -11.2450 -11.0493   0.3086   0.6355   0.6686   1.5590   1.7502   1.7735
    13.7397  14.9052  15.1933  16.4193

     occupation numbers 
     1.0000   1.0000   1.0000   1.0000   1.0000   1.0000   1.0000   1.0000
     0.0000   0.0000   0.0000   0.0000

          k = 0.1333 0.2309 0.1590 (  1404 PWs)   bands (ev):

   -11.1838 -11.1141   0.6457   0.6486   0.6888   1.1230   1.7572   1.7655
    14.7506  14.9879  15.1024  15.9130

     occupation numbers 
     1.0000   1.0000   1.0000   1.0000   1.0000   1.0000   1.0000   1.0000
     0.0000   0.0000   0.0000   0.0000

          k = 0.1333 0.3079 0.0000 (  1399 PWs)   bands (ev):

   -10.5684 -10.2689  -0.7934  -0.7024   0.8159   0.8590   0.8784   2.8086
    13.1959  13.6985  13.7842  16.6106

     occupation numbers 
     1.0000   1.0000   1.0000   1.0000   1.0000   1.0000   1.0000   1.0000
     0.0000   0.0000   0.0000   0.0000

          k = 0.1333 0.3079 0.0530 (  1396 PWs)   bands (ev):

   -10.5544 -10.2847  -0.7889  -0.7069   0.8188   0.8751   0.9410   2.6907
    13.2191  13.7472  13.9429  16.6220

     occupation numbers 
     1.0000   1.0000   1.0000   1.0000   1.0000   1.0000   1.0000   1.0000
     0.0000   0.0000   0.0000   0.0000

          k = 0.1333 0.3079 0.1060 (  1395 PWs)   bands (ev):

   -10.5149 -10.3283  -0.7762  -0.7195   0.8269   0.8659   1.1763   2.3770
    13.2941  13.6629  14.5978  16.6398

     occupation numbers 
     1.0000   1.0000   1.0000   1.0000   1.0000   1.0000   1.0000   1.0000
     0.0000   0.0000   0.0000   0.0000

          k = 0.1333 0.3079 0.1590 (  1399 PWs)   bands (ev):

   -10.4565 -10.3900  -0.7580  -0.7378   0.8391   0.8530   1.5334   1.9592
    13.4095  13.5414  15.5414  16.4654

     occupation numbers 
     1.0000   1.0000   1.0000   1.0000   1.0000   1.0000   1.0000   1.0000
     0.0000   0.0000   0.0000   0.0000

          k = 0.1333 0.3849 0.0000 (  1394 PWs)   bands (ev):

    -9.6390  -9.3580  -2.4175  -2.2816   0.1282   0.2117   1.9533   3.7725
    11.4115  12.1974  14.8355  16.4196

     occupation numbers 
     1.0000   1.0000   1.0000   1.0000   1.0000   1.0000   1.0000   1.0000
     0.0000   0.0000   0.0000   0.0000

          k = 0.1333 0.3849 0.0530 (  1392 PWs)   bands (ev):

    -9.6258  -9.3728  -2.4109  -2.2885   0.1322   0.2074   2.0308   3.6647
    11.4440  12.1541  15.0509  16.4365

     occupation numbers 
     1.0000   1.0000   1.0000   1.0000   1.0000   1.0000   1.0000   1.0000
     0.0000   0.0000   0.0000   0.0000

          k = 0.1333 0.3849 0.1060 (  1394 PWs)   bands (ev):

    -9.5886  -9.4136  -2.3925  -2.3077   0.1434   0.1955   2.2531   3.3760
    11.5406  12.0350  15.6361  16.4817

     occupation numbers 
     1.0000   1.0000   1.0000   1.0000   1.0000   1.0000   1.0000   1.0000
     0.0000   0.0000   0.0000   0.0000

          k = 0.1333 0.3849 0.1590 (  1402 PWs)   bands (ev):

    -9.5337  -9.4713  -2.3655  -2.3353   0.1599   0.1785   2.5894   2.9881
    11.6909  11.8681  16.3464  16.5255

     occupation numbers 
     1.0000   1.0000   1.0000   1.0000   1.0000   1.0000   1.0000   1.0000
     0.0000   0.0000   0.0000   0.0000

          k = 0.1333 0.4619 0.0000 (  1401 PWs)   bands (ev):

    -8.5284  -8.2711  -4.0594  -3.8897  -0.3226  -0.2296   3.2052   4.7828
     9.7207  10.6422  16.1011  16.2826

     occupation numbers 
     1.0000   1.0000   1.0000   1.0000   1.0000   1.0000   1.0000   1.0000
     0.0000   0.0000   0.0000   0.0000

          k = 0.1333 0.4619 0.0530 (  1396 PWs)   bands (ev):

    -8.5163  -8.2845  -4.0513  -3.8984  -0.3181  -0.2343   3.2754   4.6951
     9.7525  10.5862  16.1810  16.3707

     occupation numbers 
     1.0000   1.0000   1.0000   1.0000   1.0000   1.0000   1.0000   1.0000
     0.0000   0.0000   0.0000   0.0000

          k = 0.1333 0.4619 0.1060 (  1404 PWs)   bands (ev):

    -8.4820  -8.3217  -4.0285  -3.9227  -0.3055  -0.2475   3.4756   4.4555
     9.8522  10.4342  16.2707  16.5063

     occupation numbers 
     1.0000   1.0000   1.0000   1.0000   1.0000   1.0000   1.0000   1.0000
     0.0000   0.0000   0.0000   0.0000

          k = 0.1333 0.4619 0.1590 (  1393 PWs)   bands (ev):

    -8.4316  -8.3744  -3.9950  -3.9572  -0.2871  -0.2664   3.7753   4.1243
    10.0188  10.2278  16.3600  16.4532

     occupation numbers 
     1.0000   1.0000   1.0000   1.0000   1.0000   1.0000   1.0000   1.0000
     0.0000   0.0000   0.0000   0.0000

          k = 0.1333 0.5389 0.0000 (  1409 PWs)   bands (ev):

    -7.3009  -7.0885  -5.5483  -5.3727  -0.5473  -0.4505   4.4040   5.4037
     8.6677   9.3491  16.0772  16.6015

     occupation numbers 
     1.0000   1.0000   1.0000   1.0000   1.0000   1.0000   1.0000   1.0000
     0.0000   0.0000   0.0000   0.0000

          k = 0.1333 0.5389 0.0530 (  1405 PWs)   bands (ev):

    -7.2907  -7.0993  -5.5403  -5.3821  -0.5426  -0.4555   4.4592   5.3667
     8.6660   9.2897  16.0992  16.5711

     occupation numbers 
     1.0000   1.0000   1.0000   1.0000   1.0000   1.0000   1.0000   1.0000
     0.0000   0.0000   0.0000   0.0000

          k = 0.1333 0.5389 0.1060 (  1397 PWs)   bands (ev):

    -7.2617  -7.1292  -5.5176  -5.4081  -0.5294  -0.4691   4.6132   5.2517
     8.6878   9.1342  16.1614  16.4864

     occupation numbers 
     1.0000   1.0000   1.0000   1.0000   1.0000   1.0000   1.0000   1.0000
     0.0000   0.0000   0.0000   0.0000

          k = 0.1333 0.5389 0.1590 (  1386 PWs)   bands (ev):

    -7.2196  -7.1722  -5.4837  -5.4446  -0.5103  -0.4887   4.8316   5.0624
     8.7776   8.9412  16.2558  16.3711

     occupation numbers 
     1.0000   1.0000   1.0000   1.0000   1.0000   1.0000   1.0000   1.0000
     0.0000   0.0000   0.0000   0.0000

          k = 0.2000 0.3464 0.0000 (  1397 PWs)   bands (ev):

    -9.7420  -9.4590  -1.7928  -1.7209  -0.3712  -0.3171   1.8390   3.6822
    11.7693  12.3620  14.7168  17.7963

     occupation numbers 
     1.0000   1.0000   1.0000   1.0000   1.0000   1.0000   1.0000   1.0000
     0.0000   0.0000   0.0000   0.0000

          k = 0.2000 0.3464 0.0530 (  1390 PWs)   bands (ev):

    -9.7288  -9.4739  -1.7891  -1.7242  -0.3690  -0.3203   1.9172   3.5724
    11.7989  12.3316  14.9294  17.7938

     occupation numbers 
     1.0000   1.0000   1.0000   1.0000   1.0000   1.0000   1.0000   1.0000
     0.0000   0.0000   0.0000   0.0000

          k = 0.2000 0.3464 0.1060 (  1393 PWs)   bands (ev):

    -9.6912  -9.5150  -1.7786  -1.7337  -0.3627  -0.3290   2.1417   3.2788
    11.8816  12.2487  15.5154  17.7265

     occupation numbers 
     1.0000   1.0000   1.0000   1.0000   1.0000   1.0000   1.0000   1.0000
     0.0000   0.0000   0.0000   0.0000

          k = 0.2000 0.3464 0.1590 (  1395 PWs)   bands (ev):

    -9.6360  -9.5731  -1.7638  -1.7477  -0.3528  -0.3408   2.4816   2.8851
    12.0003  12.1310  16.3457  17.2239

     occupation numbers 
     1.0000   1.0000   1.0000   1.0000   1.0000   1.0000   1.0000   1.0000
     0.0000   0.0000   0.0000   0.0000

          k = 0.2000 0.4234 0.0000 (  1391 PWs)   bands (ev):

    -8.7287  -8.4667  -3.1094  -2.9877  -1.2143  -1.1247   3.0128   4.6882
    10.2321  10.9270  15.9555  17.9226

     occupation numbers 
     1.0000   1.0000   1.0000   1.0000   1.0000   1.0000   1.0000   1.0000
     0.0000   0.0000   0.0000   0.0000

          k = 0.2000 0.4234 0.0530 (  1396 PWs)   bands (ev):

    -8.7164  -8.4804  -3.1034  -2.9938  -1.2103  -1.1295   3.0854   4.5914
    10.2650  10.8911  16.1229  17.9216

     occupation numbers 
     1.0000   1.0000   1.0000   1.0000   1.0000   1.0000   1.0000   1.0000
     0.0000   0.0000   0.0000   0.0000

          k = 0.2000 0.4234 0.1060 (  1394 PWs)   bands (ev):

    -8.6815  -8.5183  -3.0866  -3.0107  -1.1988  -1.1429   3.2934   4.3301
    10.3583  10.7918  16.5651  17.8827

     occupation numbers 
     1.0000   1.0000   1.0000   1.0000   1.0000   1.0000   1.0000   1.0000
     0.0000   0.0000   0.0000   0.0000

          k = 0.2000 0.4234 0.1590 (  1394 PWs)   bands (ev):

    -8.6302  -8.5720  -3.0622  -3.0351  -1.1816  -1.1616   3.6066   3.9752
    10.4958  10.6506  17.1333  17.6402

     occupation numbers 
     1.0000   1.0000   1.0000   1.0000   1.0000   1.0000   1.0000   1.0000
     0.0000   0.0000   0.0000   0.0000

          k = 0.2000 0.5004 0.0000 (  1399 PWs)   bands (ev):

    -7.5582  -7.3246  -4.5743  -4.4098  -1.6510  -1.5377   4.2888   5.6287
     8.8535   9.5722  17.3580  17.7647

     occupation numbers 
     1.0000   1.0000   1.0000   1.0000   1.0000   1.0000   1.0000   1.0000
     0.0000   0.0000   0.0000   0.0000

          k = 0.2000 0.5004 0.0530 (  1394 PWs)   bands (ev):

    -7.5471  -7.3367  -4.5665  -4.4183  -1.6456  -1.5436   4.3519   5.5609
     8.8766   9.5280  17.4163  17.7537

     occupation numbers 
     1.0000   1.0000   1.0000   1.0000   1.0000   1.0000   1.0000   1.0000
     0.0000   0.0000   0.0000   0.0000

          k = 0.2000 0.5004 0.1060 (  1395 PWs)   bands (ev):

    -7.5158  -7.3703  -4.5444  -4.4418  -1.6305  -1.5599   4.5309   5.3700
     8.9516   9.4082  17.5050  17.7315

     occupation numbers 
     1.0000   1.0000   1.0000   1.0000   1.0000   1.0000   1.0000   1.0000
     0.0000   0.0000   0.0000   0.0000

          k = 0.2000 0.5004 0.1590 (  1396 PWs)   bands (ev):

    -7.4699  -7.4180  -4.5120  -4.4754  -1.6083  -1.5831   4.7950   5.0951
     9.0809   9.2455  17.5719  17.6621

     occupation numbers 
     1.0000   1.0000   1.0000   1.0000   1.0000   1.0000   1.0000   1.0000
     0.0000   0.0000   0.0000   0.0000

          k = 0.2000 0.5774 0.0000 (  1398 PWs)   bands (ev):

    -6.5493  -6.4300  -5.5947  -5.5168  -1.7857  -1.6667   5.1575   5.8794
     8.4903   8.6353  17.6755  18.4212

     occupation numbers 
     1.0000   1.0000   1.0000   1.0000   1.0000   1.0000   1.0000   1.0000
     0.0000   0.0000   0.0000   0.0000

          k = 0.2000 0.5774 0.0530 (  1397 PWs)   bands (ev):

    -6.5422  -6.4344  -5.5932  -5.5226  -1.7801  -1.6729   5.2062   5.8651
     8.4609   8.6047  17.6786  18.2135

     occupation numbers 
     1.0000   1.0000   1.0000   1.0000   1.0000   1.0000   1.0000   1.0000
     0.0000   0.0000   0.0000   0.0000

          k = 0.2000 0.5774 0.1060 (  1391 PWs)   bands (ev):

    -6.5230  -6.4478  -5.5875  -5.5381  -1.7641  -1.6899   5.3393   5.8091
     8.4057   8.5260  17.6566  17.8329

     occupation numbers 
     1.0000   1.0000   1.0000   1.0000   1.0000   1.0000   1.0000   1.0000
     0.0000   0.0000   0.0000   0.0000

          k = 0.2000 0.5774 0.1590 (  1397 PWs)   bands (ev):

    -6.4966  -6.4696  -5.5756  -5.5578  -1.7407  -1.7142   5.5189   5.6908
     8.3884   8.4374  17.6126  17.6398

     occupation numbers 
     1.0000   1.0000   1.0000   1.0000   1.0000   1.0000   1.0000   1.0000
     0.0000   0.0000   0.0000   0.0000

          k = 0.2667 0.4619 0.0000 (  1389 PWs)   bands (ev):

    -7.6506  -7.4129  -3.8666  -3.7757  -2.3505  -2.2839   4.2356   5.6982
     8.9811   9.6685  17.2469  18.7231

     occupation numbers 
     1.0000   1.0000   1.0000   1.0000   1.0000   1.0000   1.0000   1.0000
     0.0000   0.0000   0.0000   0.0000

          k = 0.2667 0.4619 0.0530 (  1397 PWs)   bands (ev):

    -7.6394  -7.4253  -3.8618  -3.7799  -2.3482  -2.2881   4.3014   5.6178
     9.0151   9.6323  17.2703  18.4159

     occupation numbers 
     1.0000   1.0000   1.0000   1.0000   1.0000   1.0000   1.0000   1.0000
     0.0000   0.0000   0.0000   0.0000

          k = 0.2667 0.4619 0.1060 (  1389 PWs)   bands (ev):

    -7.6076  -7.4595  -3.8485  -3.7917  -2.3409  -2.2993   4.4887   5.3977
     9.1100   9.5340  17.3110  17.9747

     occupation numbers 
     1.0000   1.0000   1.0000   1.0000   1.0000   1.0000   1.0000   1.0000
     0.0000   0.0000   0.0000   0.0000

          k = 0.2667 0.4619 0.1590 (  1392 PWs)   bands (ev):

    -7.5610  -7.5081  -3.8297  -3.8094  -2.3291  -2.3142   4.7682   5.0920
     9.2460   9.3965  17.4018  17.6182

     occupation numbers 
     1.0000   1.0000   1.0000   1.0000   1.0000   1.0000   1.0000   1.0000
     0.0000   0.0000   0.0000   0.0000

          k = 0.2667 0.5389 0.0000 (  1390 PWs)   bands (ev):

    -6.4750  -6.2806  -4.9464  -4.8173  -2.9153  -2.8108   5.4770   6.4912
     7.9482   8.5410  18.3800  18.4597

     occupation numbers 
     1.0000   1.0000   1.0000   1.0000   1.0000   1.0000   1.0000   1.0000
    -0.0019   0.0000   0.0000   0.0000

          k = 0.2667 0.5389 0.0530 (  1388 PWs)   bands (ev):

    -6.4656  -6.2904  -4.9403  -4.8239  -2.9108  -2.8166   5.5323   6.4539
     7.9638   8.4959  17.9113  18.0974

     occupation numbers 
     1.0000   1.0000   1.0000   1.0000   1.0000   1.0000   1.0000   1.0001
    -0.0012   0.0000   0.0000   0.0000

          k = 0.2667 0.5389 0.1060 (  1390 PWs)   bands (ev):

    -6.4390  -6.3178  -4.9231  -4.8424  -2.8978  -2.8325   5.6868   6.3367
     8.0159   8.3815  17.4847  17.6613

     occupation numbers 
     1.0000   1.0000   1.0000   1.0000   1.0000   1.0000   1.0000   1.0007
    -0.0002   0.0000   0.0000   0.0000

          k = 0.2667 0.5389 0.1590 (  1397 PWs)   bands (ev):

    -6.4004  -6.3571  -4.8976  -4.8688  -2.8780  -2.8547   5.9074   6.1428
     8.1109   8.2407  17.2985  17.3675

     occupation numbers 
     1.0000   1.0000   1.0000   1.0000   1.0000   1.0000   1.0000   1.0017
     0.0000   0.0000   0.0000   0.0000

          k = 0.3333 0.5774 0.0000 (  1383 PWs)   bands (ev):

    -5.5192  -5.4092  -5.4092  -5.3038  -3.5107  -3.5107   6.4246   7.0934
     7.0934   7.9095  18.0964  18.0964

     occupation numbers 
     1.0000   1.0000   1.0000   1.0000   1.0000   1.0000   1.0000   1.0000
     0.0127   0.0000   0.0000   0.0000

          k = 0.3333 0.5774 0.0530 (  1395 PWs)   bands (ev):

    -5.5090  -5.4086  -5.4086  -5.3150  -3.5119  -3.5119   6.4890   7.1011
     7.1011   7.8238  17.7928  17.7928

     occupation numbers 
     1.0000   1.0000   1.0000   1.0000   1.0000   1.0000   1.0000   0.9997
     0.0077   0.0000   0.0000   0.0000

          k = 0.3333 0.5774 0.1060 (  1392 PWs)   bands (ev):

    -5.4802  -5.4073  -5.4073  -5.3460  -3.5147  -3.5147   6.6734   7.1187
     7.1187   7.5925  17.3555  17.3555

     occupation numbers 
     1.0000   1.0000   1.0000   1.0000   1.0000   1.0000   1.0000   0.9954
     0.0015   0.0000   0.0000   0.0000

          k = 0.3333 0.5774 0.1590 (  1386 PWs)   bands (ev):

    -5.4378  -5.4062  -5.4062  -5.3900  -3.5169  -3.5169   6.9512   7.1328
     7.1328   7.2779  17.0994  17.0994

     occupation numbers 
     1.0000   1.0000   1.0000   1.0000   1.0000   1.0000   1.0000   0.9889
     0.0000   0.0000   0.0000   0.0000

     the Fermi energy is     7.1135 ev
     (compare with:     7.0357 eV, computed in scf)

     Writing all to output data dir ./temp/graphite.save/ :
     XML data file, pseudopotentials, collected wavefunctions

     init_run     :      0.41s CPU      0.47s WALL (       1 calls)
     electrons    :     21.16s CPU     22.76s WALL (       1 calls)

     Called by init_run:
     wfcinit      :      0.00s CPU      0.00s WALL (       1 calls)
     wfcinit:atom :      0.01s CPU      0.01s WALL (     108 calls)
     wfcinit:wfcr :      0.67s CPU      0.72s WALL (     108 calls)
     potinit      :      0.16s CPU      0.19s WALL (       1 calls)
     hinit0       :      0.19s CPU      0.19s WALL (       1 calls)

     Called by electrons:
     c_bands      :     21.09s CPU     22.67s WALL (       1 calls)
     v_of_rho     :      0.01s CPU      0.02s WALL (       1 calls)
     v_h          :      0.00s CPU      0.00s WALL (       1 calls)
     v_xc         :      0.01s CPU      0.02s WALL (       1 calls)
     newd         :      0.01s CPU      0.01s WALL (       1 calls)
     PAW_pot      :      0.03s CPU      0.04s WALL (       1 calls)

     Called by c_bands:
     init_us_2    :      0.01s CPU      0.01s WALL (     108 calls)
     cegterg      :     20.33s CPU     21.83s WALL (     361 calls)

     Called by sum_band:

     Called by *egterg:
     cdiaghg      :      1.14s CPU      1.21s WALL (    6302 calls)
     cegterg:over :      1.79s CPU      1.92s WALL (    6194 calls)
     cegterg:upda :      0.75s CPU      0.79s WALL (    6194 calls)
     cegterg:last :      1.97s CPU      2.08s WALL (    3081 calls)
     h_psi        :     13.46s CPU     14.53s WALL (    6663 calls)
     s_psi        :      1.01s CPU      1.10s WALL (    6663 calls)
     g_psi        :      0.06s CPU      0.06s WALL (    6194 calls)

     Called by h_psi:
     h_psi:calbec :      1.41s CPU      1.54s WALL (    6663 calls)
     vloc_psi     :     10.91s CPU     11.76s WALL (    6663 calls)
     add_vuspsi   :      1.05s CPU      1.13s WALL (    6663 calls)

     General routines
     calbec       :      1.39s CPU      1.52s WALL (    6663 calls)
     fft          :      0.11s CPU      0.12s WALL (      13 calls)
     ffts         :      0.12s CPU      0.12s WALL (       1 calls)
     fftw         :      9.56s CPU     10.31s WALL (   80432 calls)
     interpolate  :      0.12s CPU      0.12s WALL (       1 calls)
     davcio       :      0.00s CPU      0.01s WALL (     216 calls)

     Parallel routines

     PAW routines
     PAW_pot      :      0.03s CPU      0.04s WALL (       1 calls)

     PWSCF        :     21.85s CPU     23.57s WALL


   This run was terminated on:   5:28:33  26Dec2024            

=------------------------------------------------------------------------------=
   JOB DONE.
=------------------------------------------------------------------------------=
