 INFO
nunit      1    1    1
unit   cell
celltype   primcell
shape   parapipedal
 END_INFO
 DIM-GROUP
           3           1
 PRIMVEC
    4.0170594200    0.0000000000    0.0000000000
    0.0000000000    4.0170594200    0.0000000000
    0.0000000000    0.0000000000    4.0170594200
 CONVVEC
    4.0170594200    0.0000000000    0.0000000000
    0.0000000000    4.0170594200    0.0000000000
    0.0000000000    0.0000000000    4.0170594200
 PRIMCOORD
           4           1
 13      0.0000000000     0.0000000000     0.0000000000     0.0000000000     0.0000000000     0.0000000000
 13      0.0000000000     2.0085286140     2.0085286140     0.0000000000     0.0000000000     0.0000000000
 13      2.0085286140     0.0000000000     2.0085286140     0.0000000000     0.0000000000     0.0000000000
 13      2.0085286140     2.0085286140     0.0000000000     0.0000000000     0.0000000000     0.0000000000
 CONVCOORD
           4           1
 13      0.0000000000     0.0000000000     0.0000000000
 13      0.0000000000     2.0085286140     2.0085286140
 13      2.0085286140     0.0000000000     2.0085286140
 13      2.0085286140     2.0085286140     0.0000000000
 RECIP-PRIMVEC
    0.2489383142    0.0000000000    0.0000000000

    0.0000000000    0.2489383142    0.0000000000

    0.0000000000    0.0000000000    0.2489383142

 RECIP-CONVVEC
    0.2489383142    0.0000000000    0.0000000000

    0.0000000000    0.2489383142    0.0000000000

    0.0000000000    0.0000000000    0.2489383142

 WIGNER-SEITZ-PRIMCELL
           4
 -0.2008530E+01 -0.2008530E+01  0.2008530E+01  -0.1000000E+01  0.0000000E+00  0.0000000E+00
 -0.2008530E+01  0.2008530E+01  0.2008530E+01  -0.1000000E+01  0.0000000E+00  0.0000000E+00
 -0.2008530E+01  0.2008530E+01 -0.2008530E+01  -0.1000000E+01  0.0000000E+00  0.0000000E+00
 -0.2008530E+01 -0.2008530E+01 -0.2008530E+01  -0.1000000E+01  0.0000000E+00  0.0000000E+00
           4
 -0.2008530E+01 -0.2008530E+01 -0.2008530E+01  -0.0000000E+00 -0.1000000E+01 -0.0000000E+00
  0.2008530E+01 -0.2008530E+01 -0.2008530E+01  -0.0000000E+00 -0.1000000E+01 -0.0000000E+00
  0.2008530E+01 -0.2008530E+01  0.2008530E+01  -0.0000000E+00 -0.1000000E+01 -0.0000000E+00
 -0.2008530E+01 -0.2008530E+01  0.2008530E+01  -0.0000000E+00 -0.1000000E+01 -0.0000000E+00
           4
 -0.2008530E+01  0.2008530E+01 -0.2008530E+01   0.0000000E+00  0.0000000E+00 -0.1000000E+01
  0.2008530E+01  0.2008530E+01 -0.2008530E+01   0.0000000E+00  0.0000000E+00 -0.1000000E+01
  0.2008530E+01 -0.2008530E+01 -0.2008530E+01   0.0000000E+00  0.0000000E+00 -0.1000000E+01
 -0.2008530E+01 -0.2008530E+01 -0.2008530E+01   0.0000000E+00  0.0000000E+00 -0.1000000E+01
           4
 -0.2008530E+01 -0.2008530E+01  0.2008530E+01  -0.0000000E+00 -0.0000000E+00  0.1000000E+01
  0.2008530E+01 -0.2008530E+01  0.2008530E+01  -0.0000000E+00 -0.0000000E+00  0.1000000E+01
  0.2008530E+01  0.2008530E+01  0.2008530E+01  -0.0000000E+00 -0.0000000E+00  0.1000000E+01
 -0.2008530E+01  0.2008530E+01  0.2008530E+01  -0.0000000E+00 -0.0000000E+00  0.1000000E+01
           4
 -0.2008530E+01  0.2008530E+01  0.2008530E+01   0.0000000E+00  0.1000000E+01  0.0000000E+00
  0.2008530E+01  0.2008530E+01  0.2008530E+01   0.0000000E+00  0.1000000E+01  0.0000000E+00
  0.2008530E+01  0.2008530E+01 -0.2008530E+01   0.0000000E+00  0.1000000E+01  0.0000000E+00
 -0.2008530E+01  0.2008530E+01 -0.2008530E+01   0.0000000E+00  0.1000000E+01  0.0000000E+00
           4
  0.2008530E+01 -0.2008530E+01 -0.2008530E+01   0.1000000E+01 -0.0000000E+00 -0.0000000E+00
  0.2008530E+01  0.2008530E+01 -0.2008530E+01   0.1000000E+01 -0.0000000E+00 -0.0000000E+00
  0.2008530E+01  0.2008530E+01  0.2008530E+01   0.1000000E+01 -0.0000000E+00 -0.0000000E+00
  0.2008530E+01 -0.2008530E+01  0.2008530E+01   0.1000000E+01 -0.0000000E+00 -0.0000000E+00
 WIGNER-SEITZ-PRIMCELL_END
 WIGNER-SEITZ-CONVCELL
           4
 -0.2008530E+01 -0.2008530E+01  0.2008530E+01  -0.1000000E+01  0.0000000E+00  0.0000000E+00
 -0.2008530E+01  0.2008530E+01  0.2008530E+01  -0.1000000E+01  0.0000000E+00  0.0000000E+00
 -0.2008530E+01  0.2008530E+01 -0.2008530E+01  -0.1000000E+01  0.0000000E+00  0.0000000E+00
 -0.2008530E+01 -0.2008530E+01 -0.2008530E+01  -0.1000000E+01  0.0000000E+00  0.0000000E+00
           4
 -0.2008530E+01 -0.2008530E+01 -0.2008530E+01  -0.0000000E+00 -0.1000000E+01 -0.0000000E+00
  0.2008530E+01 -0.2008530E+01 -0.2008530E+01  -0.0000000E+00 -0.1000000E+01 -0.0000000E+00
  0.2008530E+01 -0.2008530E+01  0.2008530E+01  -0.0000000E+00 -0.1000000E+01 -0.0000000E+00
 -0.2008530E+01 -0.2008530E+01  0.2008530E+01  -0.0000000E+00 -0.1000000E+01 -0.0000000E+00
           4
 -0.2008530E+01  0.2008530E+01 -0.2008530E+01   0.0000000E+00  0.0000000E+00 -0.1000000E+01
  0.2008530E+01  0.2008530E+01 -0.2008530E+01   0.0000000E+00  0.0000000E+00 -0.1000000E+01
  0.2008530E+01 -0.2008530E+01 -0.2008530E+01   0.0000000E+00  0.0000000E+00 -0.1000000E+01
 -0.2008530E+01 -0.2008530E+01 -0.2008530E+01   0.0000000E+00  0.0000000E+00 -0.1000000E+01
           4
 -0.2008530E+01 -0.2008530E+01  0.2008530E+01  -0.0000000E+00 -0.0000000E+00  0.1000000E+01
  0.2008530E+01 -0.2008530E+01  0.2008530E+01  -0.0000000E+00 -0.0000000E+00  0.1000000E+01
  0.2008530E+01  0.2008530E+01  0.2008530E+01  -0.0000000E+00 -0.0000000E+00  0.1000000E+01
 -0.2008530E+01  0.2008530E+01  0.2008530E+01  -0.0000000E+00 -0.0000000E+00  0.1000000E+01
           4
 -0.2008530E+01  0.2008530E+01  0.2008530E+01   0.0000000E+00  0.1000000E+01  0.0000000E+00
  0.2008530E+01  0.2008530E+01  0.2008530E+01   0.0000000E+00  0.1000000E+01  0.0000000E+00
  0.2008530E+01  0.2008530E+01 -0.2008530E+01   0.0000000E+00  0.1000000E+01  0.0000000E+00
 -0.2008530E+01  0.2008530E+01 -0.2008530E+01   0.0000000E+00  0.1000000E+01  0.0000000E+00
           4
  0.2008530E+01 -0.2008530E+01 -0.2008530E+01   0.1000000E+01 -0.0000000E+00 -0.0000000E+00
  0.2008530E+01  0.2008530E+01 -0.2008530E+01   0.1000000E+01 -0.0000000E+00 -0.0000000E+00
  0.2008530E+01  0.2008530E+01  0.2008530E+01   0.1000000E+01 -0.0000000E+00 -0.0000000E+00
  0.2008530E+01 -0.2008530E+01  0.2008530E+01   0.1000000E+01 -0.0000000E+00 -0.0000000E+00
 WIGNER-SEITZ-CONVCELL_END
 BRILLOUIN-ZONE-PRIMCELL
           4
 -0.1244692E+00 -0.1244692E+00  0.1244692E+00  -0.1000000E+01 -0.5574790E-16  0.5574790E-16
 -0.1244692E+00  0.1244692E+00  0.1244692E+00  -0.1000000E+01 -0.5574790E-16  0.5574790E-16
 -0.1244692E+00  0.1244692E+00 -0.1244692E+00  -0.1000000E+01 -0.5574790E-16  0.5574790E-16
 -0.1244692E+00 -0.1244692E+00 -0.1244692E+00  -0.1000000E+01 -0.5574790E-16  0.5574790E-16
           4
 -0.1244692E+00 -0.1244692E+00 -0.1244692E+00  -0.0000000E+00 -0.1000000E+01 -0.2787395E-16
  0.1244692E+00 -0.1244692E+00 -0.1244692E+00  -0.0000000E+00 -0.1000000E+01 -0.2787395E-16
  0.1244692E+00 -0.1244692E+00  0.1244692E+00  -0.0000000E+00 -0.1000000E+01 -0.2787395E-16
 -0.1244692E+00 -0.1244692E+00  0.1244692E+00  -0.0000000E+00 -0.1000000E+01 -0.2787395E-16
           4
 -0.1244692E+00  0.1244692E+00 -0.1244692E+00   0.5598565E-16 -0.2811171E-16 -0.1000000E+01
  0.1244692E+00  0.1244692E+00 -0.1244692E+00   0.5598565E-16 -0.2811171E-16 -0.1000000E+01
  0.1244692E+00 -0.1244692E+00 -0.1244692E+00   0.5598565E-16 -0.2811171E-16 -0.1000000E+01
 -0.1244692E+00 -0.1244692E+00 -0.1244692E+00   0.5598565E-16 -0.2811171E-16 -0.1000000E+01
           4
 -0.1244692E+00 -0.1244692E+00  0.1244692E+00   0.5598565E-16 -0.2834946E-16  0.1000000E+01
  0.1244692E+00 -0.1244692E+00  0.1244692E+00   0.5598565E-16 -0.2834946E-16  0.1000000E+01
  0.1244692E+00  0.1244692E+00  0.1244692E+00   0.5598565E-16 -0.2834946E-16  0.1000000E+01
 -0.1244692E+00  0.1244692E+00  0.1244692E+00   0.5598565E-16 -0.2834946E-16  0.1000000E+01
           4
 -0.1244692E+00  0.1244692E+00  0.1244692E+00   0.0000000E+00  0.1000000E+01  0.2834946E-16
  0.1244692E+00  0.1244692E+00  0.1244692E+00   0.0000000E+00  0.1000000E+01  0.2834946E-16
  0.1244692E+00  0.1244692E+00 -0.1244692E+00   0.0000000E+00  0.1000000E+01  0.2834946E-16
 -0.1244692E+00  0.1244692E+00 -0.1244692E+00   0.0000000E+00  0.1000000E+01  0.2834946E-16
           4
  0.1244692E+00 -0.1244692E+00 -0.1244692E+00   0.1000000E+01 -0.5574790E-16  0.5574790E-16
  0.1244692E+00  0.1244692E+00 -0.1244692E+00   0.1000000E+01 -0.5574790E-16  0.5574790E-16
  0.1244692E+00  0.1244692E+00  0.1244692E+00   0.1000000E+01 -0.5574790E-16  0.5574790E-16
  0.1244692E+00 -0.1244692E+00  0.1244692E+00   0.1000000E+01 -0.5574790E-16  0.5574790E-16
 BRILLOUIN-ZONE-PRIMCELL_END
 BRILLOUIN-ZONE-CONVCELL
           4
 -0.1244692E+00 -0.1244692E+00  0.1244692E+00  -0.1000000E+01 -0.5574790E-16  0.5574790E-16
 -0.1244692E+00  0.1244692E+00  0.1244692E+00  -0.1000000E+01 -0.5574790E-16  0.5574790E-16
 -0.1244692E+00  0.1244692E+00 -0.1244692E+00  -0.1000000E+01 -0.5574790E-16  0.5574790E-16
 -0.1244692E+00 -0.1244692E+00 -0.1244692E+00  -0.1000000E+01 -0.5574790E-16  0.5574790E-16
           4
 -0.1244692E+00 -0.1244692E+00 -0.1244692E+00  -0.0000000E+00 -0.1000000E+01 -0.2787395E-16
  0.1244692E+00 -0.1244692E+00 -0.1244692E+00  -0.0000000E+00 -0.1000000E+01 -0.2787395E-16
  0.1244692E+00 -0.1244692E+00  0.1244692E+00  -0.0000000E+00 -0.1000000E+01 -0.2787395E-16
 -0.1244692E+00 -0.1244692E+00  0.1244692E+00  -0.0000000E+00 -0.1000000E+01 -0.2787395E-16
           4
 -0.1244692E+00  0.1244692E+00 -0.1244692E+00   0.5598565E-16 -0.2811171E-16 -0.1000000E+01
  0.1244692E+00  0.1244692E+00 -0.1244692E+00   0.5598565E-16 -0.2811171E-16 -0.1000000E+01
  0.1244692E+00 -0.1244692E+00 -0.1244692E+00   0.5598565E-16 -0.2811171E-16 -0.1000000E+01
 -0.1244692E+00 -0.1244692E+00 -0.1244692E+00   0.5598565E-16 -0.2811171E-16 -0.1000000E+01
           4
 -0.1244692E+00 -0.1244692E+00  0.1244692E+00   0.5598565E-16 -0.2834946E-16  0.1000000E+01
  0.1244692E+00 -0.1244692E+00  0.1244692E+00   0.5598565E-16 -0.2834946E-16  0.1000000E+01
  0.1244692E+00  0.1244692E+00  0.1244692E+00   0.5598565E-16 -0.2834946E-16  0.1000000E+01
 -0.1244692E+00  0.1244692E+00  0.1244692E+00   0.5598565E-16 -0.2834946E-16  0.1000000E+01
           4
 -0.1244692E+00  0.1244692E+00  0.1244692E+00   0.0000000E+00  0.1000000E+01  0.2834946E-16
  0.1244692E+00  0.1244692E+00  0.1244692E+00   0.0000000E+00  0.1000000E+01  0.2834946E-16
  0.1244692E+00  0.1244692E+00 -0.1244692E+00   0.0000000E+00  0.1000000E+01  0.2834946E-16
 -0.1244692E+00  0.1244692E+00 -0.1244692E+00   0.0000000E+00  0.1000000E+01  0.2834946E-16
           4
  0.1244692E+00 -0.1244692E+00 -0.1244692E+00   0.1000000E+01 -0.5574790E-16  0.5574790E-16
  0.1244692E+00  0.1244692E+00 -0.1244692E+00   0.1000000E+01 -0.5574790E-16  0.5574790E-16
  0.1244692E+00  0.1244692E+00  0.1244692E+00   0.1000000E+01 -0.5574790E-16  0.5574790E-16
  0.1244692E+00 -0.1244692E+00  0.1244692E+00   0.1000000E+01 -0.5574790E-16  0.5574790E-16
 BRILLOUIN-ZONE-CONVCELL_END
 ATOMS
   13    0.0000000000    0.0000000000    0.0000000000    0.0000000000    0.0000000000    0.0000000000
   13    0.0000000000    2.0085286140    2.0085286140    0.0000000000    0.0000000000    0.0000000000
   13    2.0085286140    0.0000000000    2.0085286140    0.0000000000    0.0000000000    0.0000000000
   13    2.0085286140    2.0085286140    0.0000000000    0.0000000000    0.0000000000    0.0000000000
   13    0.0000000000    0.0000000000    4.0170594200    0.0000000000    0.0000000000    0.0000000000
   13    2.0085286140    2.0085286140    4.0170594200    0.0000000000    0.0000000000    0.0000000000
   13    0.0000000000    4.0170594200    0.0000000000    0.0000000000    0.0000000000    0.0000000000
   13    2.0085286140    4.0170594200    2.0085286140    0.0000000000    0.0000000000    0.0000000000
   13    0.0000000000    4.0170594200    4.0170594200    0.0000000000    0.0000000000    0.0000000000
   13    4.0170594200    0.0000000000    0.0000000000    0.0000000000    0.0000000000    0.0000000000
   13    4.0170594200    2.0085286140    2.0085286140    0.0000000000    0.0000000000    0.0000000000
   13    4.0170594200    0.0000000000    4.0170594200    0.0000000000    0.0000000000    0.0000000000
   13    4.0170594200    4.0170594200    0.0000000000    0.0000000000    0.0000000000    0.0000000000
   13    4.0170594200    4.0170594200    4.0170594200    0.0000000000    0.0000000000    0.0000000000
 FRAMES
1      0.0000000000    0.0000000000    0.0000000000      4.0170594200    0.0000000000    0.0000000000
1      0.0000000000    0.0000000000    0.0000000000      0.0000000000    4.0170594200    0.0000000000
1      0.0000000000    0.0000000000    0.0000000000      0.0000000000    0.0000000000    4.0170594200
1      0.0000000000    0.0000000000    4.0170594200      4.0170594200    0.0000000000    4.0170594200
1      0.0000000000    0.0000000000    4.0170594200      0.0000000000    4.0170594200    4.0170594200
1      0.0000000000    4.0170594200    0.0000000000      4.0170594200    4.0170594200    0.0000000000
1      0.0000000000    4.0170594200    0.0000000000      0.0000000000    4.0170594200    4.0170594200
1      0.0000000000    4.0170594200    4.0170594200      4.0170594200    4.0170594200    4.0170594200
1      4.0170594200    0.0000000000    0.0000000000      4.0170594200    4.0170594200    0.0000000000
1      4.0170594200    0.0000000000    0.0000000000      4.0170594200    0.0000000000    4.0170594200
1      4.0170594200    0.0000000000    4.0170594200      4.0170594200    4.0170594200    4.0170594200
1      4.0170594200    4.0170594200    0.0000000000      4.0170594200    4.0170594200    4.0170594200
