
     Program PWSCF v.7.3.1 starts on 18Dec2025 at 18:22:19 

     This program is part of the open-source Quantum ESPRESSO suite
     for quantum simulation of materials; please cite
         "P. Giannozzi et al., J. Phys.:Condens. Matter 21 395502 (2009);
         "P. Giannozzi et al., J. Phys.:Condens. Matter 29 465901 (2017);
         "P. Giannozzi et al., J. Chem. Phys. 152 154105 (2020);
          URL http://www.quantum-espresso.org", 
     in publications or presentations arising from this work. More details at
     http://www.quantum-espresso.org/quote

     Parallel version (MPI), running on    14 processors

     MPI processes distributed on     1 nodes
     24500 MiB available memory on the printing compute node when the environment starts

     Reading input from al-1x1x1.vc-relax.pw.in

     Current dimensions of program PWSCF are:
     Max number of different atomic species (ntypx) = 10
     Max number of k-points (npk) = 120000
     Max angular momentum in pseudopotentials (lmaxx) =  4
     file Al.pbesol-n-kjpaw_psl.1.0.0.UPF: wavefunction(s)  3S 3P renormalized
     Found identity + (  0.0000 -0.5000 -0.5000) symmetry
     This is a supercell, fractional translations are disabled

     R & G space division:  proc/nbgrp/npool/nimage =      14
     Subspace diagonalization in iterative solution of the eigenvalue problem:
     a serial algorithm will be used


     Parallelization info
     --------------------
     sticks:   dense  smooth     PW     G-vecs:    dense   smooth      PW
     Min         105      53     16                 3069     1089     185
     Max         106      54     18                 3074     1092     187
     Sum        1481     749    233                43003    15275    2601

     Using Slab Decomposition



     bravais-lattice index     =            1
     lattice parameter (alat)  =       7.6325  a.u.
     unit-cell volume          =     444.6267 (a.u.)^3
     number of atoms/cell      =            4
     number of atomic types    =            1
     number of electrons       =        12.00
     number of Kohn-Sham states=           10
     kinetic-energy cutoff     =      40.0000  Ry
     charge density cutoff     =     320.0000  Ry
     scf convergence threshold =      1.0E-08
     mixing beta               =       0.7000
     number of iterations used =            8  plain     mixing
     energy convergence thresh.=      1.0E-05
     force convergence thresh. =      1.0E-04
     press convergence thresh. =      5.0E-02
     Exchange-correlation= SLA  PW   PSX  PSC
                           (   1   4  10   8   0   0   0)
     nstep                     =           50


     celldm(1)=   7.632472  celldm(2)=   0.000000  celldm(3)=   0.000000
     celldm(4)=   0.000000  celldm(5)=   0.000000  celldm(6)=   0.000000

     crystal axes: (cart. coord. in units of alat)
               a(1) = (   1.000000   0.000000   0.000000 )  
               a(2) = (   0.000000   1.000000   0.000000 )  
               a(3) = (   0.000000   0.000000   1.000000 )  

     reciprocal axes: (cart. coord. in units 2 pi/alat)
               b(1) = (  1.000000  0.000000  0.000000 )  
               b(2) = (  0.000000  1.000000  0.000000 )  
               b(3) = (  0.000000  0.000000  1.000000 )  


     PseudoPot. # 1 for Al read from file:
     ./../Al.pbesol-n-kjpaw_psl.1.0.0.UPF
     MD5 check sum: fed048700f41f568201cacb08e201ac8
     Pseudo is Projector augmented-wave + core cor, Zval =  3.0
     Generated using &quot;atomic&quot; code by A. Dal Corso  v.6.3
     Shape of augmentation charge: PSQ
     Using radial grid of 1135 points,  6 beta functions with: 
                l(1) =   0
                l(2) =   0
                l(3) =   1
                l(4) =   1
                l(5) =   2
                l(6) =   2
     Q(r) pseudized with 0 coefficients 


     atomic species   valence    mass     pseudopotential
     Al                3.00    27.00000     Al( 1.00)

     48 Sym. Ops., with inversion, found


                                    s                        frac. trans.

      isym =  1     identity                                     

 cryst.   s( 1) = (     1          0          0      )
                  (     0          1          0      )
                  (     0          0          1      )

 cart.    s( 1) = (  1.0000000  0.0000000  0.0000000 )
                  (  0.0000000  1.0000000  0.0000000 )
                  (  0.0000000  0.0000000  1.0000000 )


      isym =  2     180 deg rotation - cart. axis [0,0,1]        

 cryst.   s( 2) = (    -1          0          0      )
                  (     0         -1          0      )
                  (     0          0          1      )

 cart.    s( 2) = ( -1.0000000  0.0000000  0.0000000 )
                  (  0.0000000 -1.0000000  0.0000000 )
                  (  0.0000000  0.0000000  1.0000000 )


      isym =  3     180 deg rotation - cart. axis [0,1,0]        

 cryst.   s( 3) = (    -1          0          0      )
                  (     0          1          0      )
                  (     0          0         -1      )

 cart.    s( 3) = ( -1.0000000  0.0000000  0.0000000 )
                  (  0.0000000  1.0000000  0.0000000 )
                  (  0.0000000  0.0000000 -1.0000000 )


      isym =  4     180 deg rotation - cart. axis [1,0,0]        

 cryst.   s( 4) = (     1          0          0      )
                  (     0         -1          0      )
                  (     0          0         -1      )

 cart.    s( 4) = (  1.0000000  0.0000000  0.0000000 )
                  (  0.0000000 -1.0000000  0.0000000 )
                  (  0.0000000  0.0000000 -1.0000000 )


      isym =  5     180 deg rotation - cart. axis [1,1,0]        

 cryst.   s( 5) = (     0          1          0      )
                  (     1          0          0      )
                  (     0          0         -1      )

 cart.    s( 5) = (  0.0000000  1.0000000  0.0000000 )
                  (  1.0000000  0.0000000  0.0000000 )
                  (  0.0000000  0.0000000 -1.0000000 )


      isym =  6     180 deg rotation - cart. axis [1,-1,0]       

 cryst.   s( 6) = (     0         -1          0      )
                  (    -1          0          0      )
                  (     0          0         -1      )

 cart.    s( 6) = (  0.0000000 -1.0000000  0.0000000 )
                  ( -1.0000000  0.0000000  0.0000000 )
                  (  0.0000000  0.0000000 -1.0000000 )


      isym =  7      90 deg rotation - cart. axis [0,0,-1]       

 cryst.   s( 7) = (     0         -1          0      )
                  (     1          0          0      )
                  (     0          0          1      )

 cart.    s( 7) = (  0.0000000  1.0000000  0.0000000 )
                  ( -1.0000000  0.0000000  0.0000000 )
                  (  0.0000000  0.0000000  1.0000000 )


      isym =  8      90 deg rotation - cart. axis [0,0,1]        

 cryst.   s( 8) = (     0          1          0      )
                  (    -1          0          0      )
                  (     0          0          1      )

 cart.    s( 8) = (  0.0000000 -1.0000000  0.0000000 )
                  (  1.0000000  0.0000000  0.0000000 )
                  (  0.0000000  0.0000000  1.0000000 )


      isym =  9     180 deg rotation - cart. axis [1,0,1]        

 cryst.   s( 9) = (     0          0          1      )
                  (     0         -1          0      )
                  (     1          0          0      )

 cart.    s( 9) = (  0.0000000  0.0000000  1.0000000 )
                  (  0.0000000 -1.0000000  0.0000000 )
                  (  1.0000000  0.0000000  0.0000000 )


      isym = 10     180 deg rotation - cart. axis [-1,0,1]       

 cryst.   s(10) = (     0          0         -1      )
                  (     0         -1          0      )
                  (    -1          0          0      )

 cart.    s(10) = (  0.0000000  0.0000000 -1.0000000 )
                  (  0.0000000 -1.0000000  0.0000000 )
                  ( -1.0000000  0.0000000  0.0000000 )


      isym = 11      90 deg rotation - cart. axis [0,1,0]        

 cryst.   s(11) = (     0          0         -1      )
                  (     0          1          0      )
                  (     1          0          0      )

 cart.    s(11) = (  0.0000000  0.0000000  1.0000000 )
                  (  0.0000000  1.0000000  0.0000000 )
                  ( -1.0000000  0.0000000  0.0000000 )


      isym = 12      90 deg rotation - cart. axis [0,-1,0]       

 cryst.   s(12) = (     0          0          1      )
                  (     0          1          0      )
                  (    -1          0          0      )

 cart.    s(12) = (  0.0000000  0.0000000 -1.0000000 )
                  (  0.0000000  1.0000000  0.0000000 )
                  (  1.0000000  0.0000000  0.0000000 )


      isym = 13     180 deg rotation - cart. axis [0,1,1]        

 cryst.   s(13) = (    -1          0          0      )
                  (     0          0          1      )
                  (     0          1          0      )

 cart.    s(13) = ( -1.0000000  0.0000000  0.0000000 )
                  (  0.0000000  0.0000000  1.0000000 )
                  (  0.0000000  1.0000000  0.0000000 )


      isym = 14     180 deg rotation - cart. axis [0,1,-1]       

 cryst.   s(14) = (    -1          0          0      )
                  (     0          0         -1      )
                  (     0         -1          0      )

 cart.    s(14) = ( -1.0000000  0.0000000  0.0000000 )
                  (  0.0000000  0.0000000 -1.0000000 )
                  (  0.0000000 -1.0000000  0.0000000 )


      isym = 15      90 deg rotation - cart. axis [-1,0,0]       

 cryst.   s(15) = (     1          0          0      )
                  (     0          0         -1      )
                  (     0          1          0      )

 cart.    s(15) = (  1.0000000  0.0000000  0.0000000 )
                  (  0.0000000  0.0000000  1.0000000 )
                  (  0.0000000 -1.0000000  0.0000000 )


      isym = 16      90 deg rotation - cart. axis [1,0,0]        

 cryst.   s(16) = (     1          0          0      )
                  (     0          0          1      )
                  (     0         -1          0      )

 cart.    s(16) = (  1.0000000  0.0000000  0.0000000 )
                  (  0.0000000  0.0000000 -1.0000000 )
                  (  0.0000000  1.0000000  0.0000000 )


      isym = 17     120 deg rotation - cart. axis [-1,-1,-1]     

 cryst.   s(17) = (     0          0          1      )
                  (     1          0          0      )
                  (     0          1          0      )

 cart.    s(17) = (  0.0000000  1.0000000  0.0000000 )
                  (  0.0000000  0.0000000  1.0000000 )
                  (  1.0000000  0.0000000  0.0000000 )


      isym = 18     120 deg rotation - cart. axis [-1,1,1]       

 cryst.   s(18) = (     0          0         -1      )
                  (    -1          0          0      )
                  (     0          1          0      )

 cart.    s(18) = (  0.0000000 -1.0000000  0.0000000 )
                  (  0.0000000  0.0000000  1.0000000 )
                  ( -1.0000000  0.0000000  0.0000000 )


      isym = 19     120 deg rotation - cart. axis [1,1,-1]       

 cryst.   s(19) = (     0          0         -1      )
                  (     1          0          0      )
                  (     0         -1          0      )

 cart.    s(19) = (  0.0000000  1.0000000  0.0000000 )
                  (  0.0000000  0.0000000 -1.0000000 )
                  ( -1.0000000  0.0000000  0.0000000 )


      isym = 20     120 deg rotation - cart. axis [1,-1,1]       

 cryst.   s(20) = (     0          0          1      )
                  (    -1          0          0      )
                  (     0         -1          0      )

 cart.    s(20) = (  0.0000000 -1.0000000  0.0000000 )
                  (  0.0000000  0.0000000 -1.0000000 )
                  (  1.0000000  0.0000000  0.0000000 )


      isym = 21     120 deg rotation - cart. axis [1,1,1]        

 cryst.   s(21) = (     0          1          0      )
                  (     0          0          1      )
                  (     1          0          0      )

 cart.    s(21) = (  0.0000000  0.0000000  1.0000000 )
                  (  1.0000000  0.0000000  0.0000000 )
                  (  0.0000000  1.0000000  0.0000000 )


      isym = 22     120 deg rotation - cart. axis [-1,1,-1]      

 cryst.   s(22) = (     0         -1          0      )
                  (     0          0         -1      )
                  (     1          0          0      )

 cart.    s(22) = (  0.0000000  0.0000000  1.0000000 )
                  ( -1.0000000  0.0000000  0.0000000 )
                  (  0.0000000 -1.0000000  0.0000000 )


      isym = 23     120 deg rotation - cart. axis [1,-1,-1]      

 cryst.   s(23) = (     0         -1          0      )
                  (     0          0          1      )
                  (    -1          0          0      )

 cart.    s(23) = (  0.0000000  0.0000000 -1.0000000 )
                  ( -1.0000000  0.0000000  0.0000000 )
                  (  0.0000000  1.0000000  0.0000000 )


      isym = 24     120 deg rotation - cart. axis [-1,-1,1]      

 cryst.   s(24) = (     0          1          0      )
                  (     0          0         -1      )
                  (    -1          0          0      )

 cart.    s(24) = (  0.0000000  0.0000000 -1.0000000 )
                  (  1.0000000  0.0000000  0.0000000 )
                  (  0.0000000 -1.0000000  0.0000000 )


      isym = 25     inversion                                    

 cryst.   s(25) = (    -1          0          0      )
                  (     0         -1          0      )
                  (     0          0         -1      )

 cart.    s(25) = ( -1.0000000  0.0000000  0.0000000 )
                  (  0.0000000 -1.0000000  0.0000000 )
                  (  0.0000000  0.0000000 -1.0000000 )


      isym = 26     inv. 180 deg rotation - cart. axis [0,0,1]   

 cryst.   s(26) = (     1          0          0      )
                  (     0          1          0      )
                  (     0          0         -1      )

 cart.    s(26) = (  1.0000000  0.0000000  0.0000000 )
                  (  0.0000000  1.0000000  0.0000000 )
                  (  0.0000000  0.0000000 -1.0000000 )


      isym = 27     inv. 180 deg rotation - cart. axis [0,1,0]   

 cryst.   s(27) = (     1          0          0      )
                  (     0         -1          0      )
                  (     0          0          1      )

 cart.    s(27) = (  1.0000000  0.0000000  0.0000000 )
                  (  0.0000000 -1.0000000  0.0000000 )
                  (  0.0000000  0.0000000  1.0000000 )


      isym = 28     inv. 180 deg rotation - cart. axis [1,0,0]   

 cryst.   s(28) = (    -1          0          0      )
                  (     0          1          0      )
                  (     0          0          1      )

 cart.    s(28) = ( -1.0000000  0.0000000  0.0000000 )
                  (  0.0000000  1.0000000  0.0000000 )
                  (  0.0000000  0.0000000  1.0000000 )


      isym = 29     inv. 180 deg rotation - cart. axis [1,1,0]   

 cryst.   s(29) = (     0         -1          0      )
                  (    -1          0          0      )
                  (     0          0          1      )

 cart.    s(29) = (  0.0000000 -1.0000000  0.0000000 )
                  ( -1.0000000  0.0000000  0.0000000 )
                  (  0.0000000  0.0000000  1.0000000 )


      isym = 30     inv. 180 deg rotation - cart. axis [1,-1,0]  

 cryst.   s(30) = (     0          1          0      )
                  (     1          0          0      )
                  (     0          0          1      )

 cart.    s(30) = (  0.0000000  1.0000000  0.0000000 )
                  (  1.0000000  0.0000000  0.0000000 )
                  (  0.0000000  0.0000000  1.0000000 )


      isym = 31     inv.  90 deg rotation - cart. axis [0,0,-1]  

 cryst.   s(31) = (     0          1          0      )
                  (    -1          0          0      )
                  (     0          0         -1      )

 cart.    s(31) = (  0.0000000 -1.0000000  0.0000000 )
                  (  1.0000000  0.0000000  0.0000000 )
                  (  0.0000000  0.0000000 -1.0000000 )


      isym = 32     inv.  90 deg rotation - cart. axis [0,0,1]   

 cryst.   s(32) = (     0         -1          0      )
                  (     1          0          0      )
                  (     0          0         -1      )

 cart.    s(32) = (  0.0000000  1.0000000  0.0000000 )
                  ( -1.0000000  0.0000000  0.0000000 )
                  (  0.0000000  0.0000000 -1.0000000 )


      isym = 33     inv. 180 deg rotation - cart. axis [1,0,1]   

 cryst.   s(33) = (     0          0         -1      )
                  (     0          1          0      )
                  (    -1          0          0      )

 cart.    s(33) = (  0.0000000  0.0000000 -1.0000000 )
                  (  0.0000000  1.0000000  0.0000000 )
                  ( -1.0000000  0.0000000  0.0000000 )


      isym = 34     inv. 180 deg rotation - cart. axis [-1,0,1]  

 cryst.   s(34) = (     0          0          1      )
                  (     0          1          0      )
                  (     1          0          0      )

 cart.    s(34) = (  0.0000000  0.0000000  1.0000000 )
                  (  0.0000000  1.0000000  0.0000000 )
                  (  1.0000000  0.0000000  0.0000000 )


      isym = 35     inv.  90 deg rotation - cart. axis [0,1,0]   

 cryst.   s(35) = (     0          0          1      )
                  (     0         -1          0      )
                  (    -1          0          0      )

 cart.    s(35) = (  0.0000000  0.0000000 -1.0000000 )
                  (  0.0000000 -1.0000000  0.0000000 )
                  (  1.0000000  0.0000000  0.0000000 )


      isym = 36     inv.  90 deg rotation - cart. axis [0,-1,0]  

 cryst.   s(36) = (     0          0         -1      )
                  (     0         -1          0      )
                  (     1          0          0      )

 cart.    s(36) = (  0.0000000  0.0000000  1.0000000 )
                  (  0.0000000 -1.0000000  0.0000000 )
                  ( -1.0000000  0.0000000  0.0000000 )


      isym = 37     inv. 180 deg rotation - cart. axis [0,1,1]   

 cryst.   s(37) = (     1          0          0      )
                  (     0          0         -1      )
                  (     0         -1          0      )

 cart.    s(37) = (  1.0000000  0.0000000  0.0000000 )
                  (  0.0000000  0.0000000 -1.0000000 )
                  (  0.0000000 -1.0000000  0.0000000 )


      isym = 38     inv. 180 deg rotation - cart. axis [0,1,-1]  

 cryst.   s(38) = (     1          0          0      )
                  (     0          0          1      )
                  (     0          1          0      )

 cart.    s(38) = (  1.0000000  0.0000000  0.0000000 )
                  (  0.0000000  0.0000000  1.0000000 )
                  (  0.0000000  1.0000000  0.0000000 )


      isym = 39     inv.  90 deg rotation - cart. axis [-1,0,0]  

 cryst.   s(39) = (    -1          0          0      )
                  (     0          0          1      )
                  (     0         -1          0      )

 cart.    s(39) = ( -1.0000000  0.0000000  0.0000000 )
                  (  0.0000000  0.0000000 -1.0000000 )
                  (  0.0000000  1.0000000  0.0000000 )


      isym = 40     inv.  90 deg rotation - cart. axis [1,0,0]   

 cryst.   s(40) = (    -1          0          0      )
                  (     0          0         -1      )
                  (     0          1          0      )

 cart.    s(40) = ( -1.0000000  0.0000000  0.0000000 )
                  (  0.0000000  0.0000000  1.0000000 )
                  (  0.0000000 -1.0000000  0.0000000 )


      isym = 41     inv. 120 deg rotation - cart. axis [-1,-1,-1]

 cryst.   s(41) = (     0          0         -1      )
                  (    -1          0          0      )
                  (     0         -1          0      )

 cart.    s(41) = (  0.0000000 -1.0000000  0.0000000 )
                  (  0.0000000  0.0000000 -1.0000000 )
                  ( -1.0000000  0.0000000  0.0000000 )


      isym = 42     inv. 120 deg rotation - cart. axis [-1,1,1]  

 cryst.   s(42) = (     0          0          1      )
                  (     1          0          0      )
                  (     0         -1          0      )

 cart.    s(42) = (  0.0000000  1.0000000  0.0000000 )
                  (  0.0000000  0.0000000 -1.0000000 )
                  (  1.0000000  0.0000000  0.0000000 )


      isym = 43     inv. 120 deg rotation - cart. axis [1,1,-1]  

 cryst.   s(43) = (     0          0          1      )
                  (    -1          0          0      )
                  (     0          1          0      )

 cart.    s(43) = (  0.0000000 -1.0000000  0.0000000 )
                  (  0.0000000  0.0000000  1.0000000 )
                  (  1.0000000  0.0000000  0.0000000 )


      isym = 44     inv. 120 deg rotation - cart. axis [1,-1,1]  

 cryst.   s(44) = (     0          0         -1      )
                  (     1          0          0      )
                  (     0          1          0      )

 cart.    s(44) = (  0.0000000  1.0000000  0.0000000 )
                  (  0.0000000  0.0000000  1.0000000 )
                  ( -1.0000000  0.0000000  0.0000000 )


      isym = 45     inv. 120 deg rotation - cart. axis [1,1,1]   

 cryst.   s(45) = (     0         -1          0      )
                  (     0          0         -1      )
                  (    -1          0          0      )

 cart.    s(45) = (  0.0000000  0.0000000 -1.0000000 )
                  ( -1.0000000  0.0000000  0.0000000 )
                  (  0.0000000 -1.0000000  0.0000000 )


      isym = 46     inv. 120 deg rotation - cart. axis [-1,1,-1] 

 cryst.   s(46) = (     0          1          0      )
                  (     0          0          1      )
                  (    -1          0          0      )

 cart.    s(46) = (  0.0000000  0.0000000 -1.0000000 )
                  (  1.0000000  0.0000000  0.0000000 )
                  (  0.0000000  1.0000000  0.0000000 )


      isym = 47     inv. 120 deg rotation - cart. axis [1,-1,-1] 

 cryst.   s(47) = (     0          1          0      )
                  (     0          0         -1      )
                  (     1          0          0      )

 cart.    s(47) = (  0.0000000  0.0000000  1.0000000 )
                  (  1.0000000  0.0000000  0.0000000 )
                  (  0.0000000 -1.0000000  0.0000000 )


      isym = 48     inv. 120 deg rotation - cart. axis [-1,-1,1] 

 cryst.   s(48) = (     0         -1          0      )
                  (     0          0          1      )
                  (     1          0          0      )

 cart.    s(48) = (  0.0000000  0.0000000  1.0000000 )
                  ( -1.0000000  0.0000000  0.0000000 )
                  (  0.0000000  1.0000000  0.0000000 )


     point group O_h (m-3m) 
     there are 10 classes
     the character table:

       E     8C3   3C2   6C4   6C2'  i     8S6   3s_h  6S4   6s_d 
A_1g   1.00  1.00  1.00  1.00  1.00  1.00  1.00  1.00  1.00  1.00
A_2g   1.00  1.00  1.00 -1.00 -1.00  1.00  1.00  1.00 -1.00 -1.00
E_g    2.00 -1.00  2.00  0.00  0.00  2.00 -1.00  2.00  0.00  0.00
T_1g   3.00  0.00 -1.00  1.00 -1.00  3.00  0.00 -1.00  1.00 -1.00
T_2g   3.00  0.00 -1.00 -1.00  1.00  3.00  0.00 -1.00 -1.00  1.00
A_1u   1.00  1.00  1.00  1.00  1.00 -1.00 -1.00 -1.00 -1.00 -1.00
A_2u   1.00  1.00  1.00 -1.00 -1.00 -1.00 -1.00 -1.00  1.00  1.00
E_u    2.00 -1.00  2.00  0.00  0.00 -2.00  1.00 -2.00  0.00  0.00
T_1u   3.00  0.00 -1.00  1.00 -1.00 -3.00  0.00  1.00 -1.00  1.00
T_2u   3.00  0.00 -1.00 -1.00  1.00 -3.00  0.00  1.00  1.00 -1.00

     the symmetry operations in each class and the name of the first element:

     E        1
          identity                                               
     8C3     17   19   20   18   24   21   22   23
          120 deg rotation - cart. axis [-1,-1,-1]               
     3C2      2    4    3
          180 deg rotation - cart. axis [0,0,1]                  
     6C4      7    8   15   16   12   11
           90 deg rotation - cart. axis [0,0,-1]                 
     6C2'     5    6   14   13   10    9
          180 deg rotation - cart. axis [1,1,0]                  
     i       25
          inversion                                              
     8S6     41   43   44   42   48   45   46   47
          inv. 120 deg rotation - cart. axis [-1,-1,-1]          
     3s_h    26   28   27
          inv. 180 deg rotation - cart. axis [0,0,1]             
     6S4     31   32   39   40   36   35
          inv.  90 deg rotation - cart. axis [0,0,-1]            
     6s_d    29   30   38   37   34   33
          inv. 180 deg rotation - cart. axis [1,1,0]             

   Cartesian axes

     site n.     atom                  positions (alat units)
         1        Al     tau(   1) = (   0.0000000   0.0000000   0.0000000  )
         2        Al     tau(   2) = (   0.0000000   0.5000000   0.5000000  )
         3        Al     tau(   3) = (   0.5000000   0.0000000   0.5000000  )
         4        Al     tau(   4) = (   0.5000000   0.5000000   0.0000000  )

   Crystallographic axes

     site n.     atom                  positions (cryst. coord.)
         1        Al     tau(   1) = (  0.0000000  0.0000000  0.0000000  )
         2        Al     tau(   2) = (  0.0000000  0.5000000  0.5000000  )
         3        Al     tau(   3) = (  0.5000000  0.0000000  0.5000000  )
         4        Al     tau(   4) = (  0.5000000  0.5000000  0.0000000  )

     number of k points=    56  Fermi-Dirac smearing, width (Ry)=  0.0005
                       cart. coord. in units 2pi/alat
        k(    1) = (   0.0000000   0.0000000   0.0000000), wk =   0.0020000
        k(    2) = (   0.0000000   0.0000000   0.1000000), wk =   0.0120000
        k(    3) = (   0.0000000   0.0000000   0.2000000), wk =   0.0120000
        k(    4) = (   0.0000000   0.0000000   0.3000000), wk =   0.0120000
        k(    5) = (   0.0000000   0.0000000   0.4000000), wk =   0.0120000
        k(    6) = (   0.0000000   0.0000000  -0.5000000), wk =   0.0060000
        k(    7) = (   0.0000000   0.1000000   0.1000000), wk =   0.0240000
        k(    8) = (   0.0000000   0.1000000   0.2000000), wk =   0.0480000
        k(    9) = (   0.0000000   0.1000000   0.3000000), wk =   0.0480000
        k(   10) = (   0.0000000   0.1000000   0.4000000), wk =   0.0480000
        k(   11) = (   0.0000000   0.1000000  -0.5000000), wk =   0.0240000
        k(   12) = (   0.0000000   0.2000000   0.2000000), wk =   0.0240000
        k(   13) = (   0.0000000   0.2000000   0.3000000), wk =   0.0480000
        k(   14) = (   0.0000000   0.2000000   0.4000000), wk =   0.0480000
        k(   15) = (   0.0000000   0.2000000  -0.5000000), wk =   0.0240000
        k(   16) = (   0.0000000   0.3000000   0.3000000), wk =   0.0240000
        k(   17) = (   0.0000000   0.3000000   0.4000000), wk =   0.0480000
        k(   18) = (   0.0000000   0.3000000  -0.5000000), wk =   0.0240000
        k(   19) = (   0.0000000   0.4000000   0.4000000), wk =   0.0240000
        k(   20) = (   0.0000000   0.4000000  -0.5000000), wk =   0.0240000
        k(   21) = (   0.0000000  -0.5000000  -0.5000000), wk =   0.0060000
        k(   22) = (   0.1000000   0.1000000   0.1000000), wk =   0.0160000
        k(   23) = (   0.1000000   0.1000000   0.2000000), wk =   0.0480000
        k(   24) = (   0.1000000   0.1000000   0.3000000), wk =   0.0480000
        k(   25) = (   0.1000000   0.1000000   0.4000000), wk =   0.0480000
        k(   26) = (   0.1000000   0.1000000  -0.5000000), wk =   0.0240000
        k(   27) = (   0.1000000   0.2000000   0.2000000), wk =   0.0480000
        k(   28) = (   0.1000000   0.2000000   0.3000000), wk =   0.0960000
        k(   29) = (   0.1000000   0.2000000   0.4000000), wk =   0.0960000
        k(   30) = (   0.1000000   0.2000000  -0.5000000), wk =   0.0480000
        k(   31) = (   0.1000000   0.3000000   0.3000000), wk =   0.0480000
        k(   32) = (   0.1000000   0.3000000   0.4000000), wk =   0.0960000
        k(   33) = (   0.1000000   0.3000000  -0.5000000), wk =   0.0480000
        k(   34) = (   0.1000000   0.4000000   0.4000000), wk =   0.0480000
        k(   35) = (   0.1000000   0.4000000  -0.5000000), wk =   0.0480000
        k(   36) = (   0.1000000  -0.5000000  -0.5000000), wk =   0.0120000
        k(   37) = (   0.2000000   0.2000000   0.2000000), wk =   0.0160000
        k(   38) = (   0.2000000   0.2000000   0.3000000), wk =   0.0480000
        k(   39) = (   0.2000000   0.2000000   0.4000000), wk =   0.0480000
        k(   40) = (   0.2000000   0.2000000  -0.5000000), wk =   0.0240000
        k(   41) = (   0.2000000   0.3000000   0.3000000), wk =   0.0480000
        k(   42) = (   0.2000000   0.3000000   0.4000000), wk =   0.0960000
        k(   43) = (   0.2000000   0.3000000  -0.5000000), wk =   0.0480000
        k(   44) = (   0.2000000   0.4000000   0.4000000), wk =   0.0480000
        k(   45) = (   0.2000000   0.4000000  -0.5000000), wk =   0.0480000
        k(   46) = (   0.2000000  -0.5000000  -0.5000000), wk =   0.0120000
        k(   47) = (   0.3000000   0.3000000   0.3000000), wk =   0.0160000
        k(   48) = (   0.3000000   0.3000000   0.4000000), wk =   0.0480000
        k(   49) = (   0.3000000   0.3000000  -0.5000000), wk =   0.0240000
        k(   50) = (   0.3000000   0.4000000   0.4000000), wk =   0.0480000
        k(   51) = (   0.3000000   0.4000000  -0.5000000), wk =   0.0480000
        k(   52) = (   0.3000000  -0.5000000  -0.5000000), wk =   0.0120000
        k(   53) = (   0.4000000   0.4000000   0.4000000), wk =   0.0160000
        k(   54) = (   0.4000000   0.4000000  -0.5000000), wk =   0.0240000
        k(   55) = (   0.4000000  -0.5000000  -0.5000000), wk =   0.0120000
        k(   56) = (  -0.5000000  -0.5000000  -0.5000000), wk =   0.0020000

                       cryst. coord.
        k(    1) = (   0.0000000   0.0000000   0.0000000), wk =   0.0020000
        k(    2) = (   0.0000000   0.0000000   0.1000000), wk =   0.0120000
        k(    3) = (   0.0000000   0.0000000   0.2000000), wk =   0.0120000
        k(    4) = (   0.0000000   0.0000000   0.3000000), wk =   0.0120000
        k(    5) = (   0.0000000   0.0000000   0.4000000), wk =   0.0120000
        k(    6) = (   0.0000000   0.0000000  -0.5000000), wk =   0.0060000
        k(    7) = (   0.0000000   0.1000000   0.1000000), wk =   0.0240000
        k(    8) = (   0.0000000   0.1000000   0.2000000), wk =   0.0480000
        k(    9) = (   0.0000000   0.1000000   0.3000000), wk =   0.0480000
        k(   10) = (   0.0000000   0.1000000   0.4000000), wk =   0.0480000
        k(   11) = (   0.0000000   0.1000000  -0.5000000), wk =   0.0240000
        k(   12) = (   0.0000000   0.2000000   0.2000000), wk =   0.0240000
        k(   13) = (   0.0000000   0.2000000   0.3000000), wk =   0.0480000
        k(   14) = (   0.0000000   0.2000000   0.4000000), wk =   0.0480000
        k(   15) = (   0.0000000   0.2000000  -0.5000000), wk =   0.0240000
        k(   16) = (   0.0000000   0.3000000   0.3000000), wk =   0.0240000
        k(   17) = (   0.0000000   0.3000000   0.4000000), wk =   0.0480000
        k(   18) = (   0.0000000   0.3000000  -0.5000000), wk =   0.0240000
        k(   19) = (   0.0000000   0.4000000   0.4000000), wk =   0.0240000
        k(   20) = (   0.0000000   0.4000000  -0.5000000), wk =   0.0240000
        k(   21) = (   0.0000000  -0.5000000  -0.5000000), wk =   0.0060000
        k(   22) = (   0.1000000   0.1000000   0.1000000), wk =   0.0160000
        k(   23) = (   0.1000000   0.1000000   0.2000000), wk =   0.0480000
        k(   24) = (   0.1000000   0.1000000   0.3000000), wk =   0.0480000
        k(   25) = (   0.1000000   0.1000000   0.4000000), wk =   0.0480000
        k(   26) = (   0.1000000   0.1000000  -0.5000000), wk =   0.0240000
        k(   27) = (   0.1000000   0.2000000   0.2000000), wk =   0.0480000
        k(   28) = (   0.1000000   0.2000000   0.3000000), wk =   0.0960000
        k(   29) = (   0.1000000   0.2000000   0.4000000), wk =   0.0960000
        k(   30) = (   0.1000000   0.2000000  -0.5000000), wk =   0.0480000
        k(   31) = (   0.1000000   0.3000000   0.3000000), wk =   0.0480000
        k(   32) = (   0.1000000   0.3000000   0.4000000), wk =   0.0960000
        k(   33) = (   0.1000000   0.3000000  -0.5000000), wk =   0.0480000
        k(   34) = (   0.1000000   0.4000000   0.4000000), wk =   0.0480000
        k(   35) = (   0.1000000   0.4000000  -0.5000000), wk =   0.0480000
        k(   36) = (   0.1000000  -0.5000000  -0.5000000), wk =   0.0120000
        k(   37) = (   0.2000000   0.2000000   0.2000000), wk =   0.0160000
        k(   38) = (   0.2000000   0.2000000   0.3000000), wk =   0.0480000
        k(   39) = (   0.2000000   0.2000000   0.4000000), wk =   0.0480000
        k(   40) = (   0.2000000   0.2000000  -0.5000000), wk =   0.0240000
        k(   41) = (   0.2000000   0.3000000   0.3000000), wk =   0.0480000
        k(   42) = (   0.2000000   0.3000000   0.4000000), wk =   0.0960000
        k(   43) = (   0.2000000   0.3000000  -0.5000000), wk =   0.0480000
        k(   44) = (   0.2000000   0.4000000   0.4000000), wk =   0.0480000
        k(   45) = (   0.2000000   0.4000000  -0.5000000), wk =   0.0480000
        k(   46) = (   0.2000000  -0.5000000  -0.5000000), wk =   0.0120000
        k(   47) = (   0.3000000   0.3000000   0.3000000), wk =   0.0160000
        k(   48) = (   0.3000000   0.3000000   0.4000000), wk =   0.0480000
        k(   49) = (   0.3000000   0.3000000  -0.5000000), wk =   0.0240000
        k(   50) = (   0.3000000   0.4000000   0.4000000), wk =   0.0480000
        k(   51) = (   0.3000000   0.4000000  -0.5000000), wk =   0.0480000
        k(   52) = (   0.3000000  -0.5000000  -0.5000000), wk =   0.0120000
        k(   53) = (   0.4000000   0.4000000   0.4000000), wk =   0.0160000
        k(   54) = (   0.4000000   0.4000000  -0.5000000), wk =   0.0240000
        k(   55) = (   0.4000000  -0.5000000  -0.5000000), wk =   0.0120000
        k(   56) = (  -0.5000000  -0.5000000  -0.5000000), wk =   0.0020000

     Dense  grid:    43003 G-vectors     FFT dimensions: (  45,  45,  45)

     Smooth grid:    15275 G-vectors     FFT dimensions: (  32,  32,  32)

     Dynamical RAM for                 wfc:       0.02 MB

     Dynamical RAM for     wfc (w. buffer):       1.17 MB

     Dynamical RAM for           str. fact:       0.05 MB

     Dynamical RAM for           local pot:       0.00 MB

     Dynamical RAM for          nlocal pot:       0.15 MB

     Dynamical RAM for                qrad:       2.87 MB

     Dynamical RAM for          rho,v,vnew:       0.33 MB

     Dynamical RAM for               rhoin:       0.11 MB

     Dynamical RAM for            rho*nmix:       0.75 MB

     Dynamical RAM for           G-vectors:       0.18 MB

     Dynamical RAM for          h,s,v(r/c):       0.02 MB

     Dynamical RAM for          <psi|beta>:       0.01 MB

     Dynamical RAM for                 psi:       0.04 MB

     Dynamical RAM for                hpsi:       0.04 MB

     Dynamical RAM for                spsi:       0.04 MB

     Dynamical RAM for      wfcinit/wfcrot:       0.07 MB

     Dynamical RAM for           addusdens:       8.91 MB

     Dynamical RAM for          addusforce:       9.23 MB

     Dynamical RAM for         addusstress:       9.43 MB

     Estimated static dynamical RAM per process >       5.26 MB

     Estimated max dynamical RAM per process >      15.44 MB

     Estimated total dynamical RAM >     216.18 MB

     Initial potential from superposition of free atoms

     starting charge      11.9913, renormalised to      12.0000
     Starting wfcs are   16 randomized atomic wfcs
     Checking if some PAW data can be deallocated... 

     total cpu time spent up to now is        0.6 secs

     Self-consistent Calculation

     iteration #  1     ecut=    40.00 Ry     beta= 0.70
     Davidson diagonalization with overlap

---- Real-time Memory Report at c_bands before calling an iterative solver
            49 MiB given to the printing process from OS
             0 MiB allocation reported by mallinfo(arena+hblkhd)
         24140 MiB available memory on the node where the printing process lives
------------------
     ethr =  1.00E-02,  avg # of iterations =  3.6

     Threshold (ethr) on eigenvalues was too large:
     Diagonalizing with lowered threshold

     Davidson diagonalization with overlap

---- Real-time Memory Report at c_bands before calling an iterative solver
            52 MiB given to the printing process from OS
             0 MiB allocation reported by mallinfo(arena+hblkhd)
         24115 MiB available memory on the node where the printing process lives
------------------
     ethr =  1.68E-04,  avg # of iterations =  4.1

     total cpu time spent up to now is        1.6 secs

     total energy              =    -154.06203258 Ry
     estimated scf accuracy    <       0.02095925 Ry

     iteration #  2     ecut=    40.00 Ry     beta= 0.70
     Davidson diagonalization with overlap

---- Real-time Memory Report at c_bands before calling an iterative solver
            54 MiB given to the printing process from OS
             0 MiB allocation reported by mallinfo(arena+hblkhd)
         24088 MiB available memory on the node where the printing process lives
------------------
     ethr =  1.75E-04,  avg # of iterations =  1.0

     total cpu time spent up to now is        1.9 secs

     total energy              =    -154.06193985 Ry
     estimated scf accuracy    <       0.00142047 Ry

     iteration #  3     ecut=    40.00 Ry     beta= 0.70
     Davidson diagonalization with overlap

---- Real-time Memory Report at c_bands before calling an iterative solver
            54 MiB given to the printing process from OS
             0 MiB allocation reported by mallinfo(arena+hblkhd)
         24086 MiB available memory on the node where the printing process lives
------------------
     ethr =  1.18E-05,  avg # of iterations =  3.7

     total cpu time spent up to now is        2.4 secs

     total energy              =    -154.06202904 Ry
     estimated scf accuracy    <       0.00000197 Ry

     iteration #  4     ecut=    40.00 Ry     beta= 0.70
     Davidson diagonalization with overlap

---- Real-time Memory Report at c_bands before calling an iterative solver
            54 MiB given to the printing process from OS
             0 MiB allocation reported by mallinfo(arena+hblkhd)
         24080 MiB available memory on the node where the printing process lives
------------------
     c_bands:  1 eigenvalues not converged
     ethr =  1.64E-08,  avg # of iterations =  6.7

     total cpu time spent up to now is        3.1 secs

     total energy              =    -154.06204417 Ry
     estimated scf accuracy    <       0.00000035 Ry

     iteration #  5     ecut=    40.00 Ry     beta= 0.70
     Davidson diagonalization with overlap

---- Real-time Memory Report at c_bands before calling an iterative solver
            54 MiB given to the printing process from OS
             0 MiB allocation reported by mallinfo(arena+hblkhd)
         24077 MiB available memory on the node where the printing process lives
------------------
     ethr =  2.89E-09,  avg # of iterations =  1.9

     total cpu time spent up to now is        3.5 secs

     total energy              =    -154.06204420 Ry
     estimated scf accuracy    <       0.00000001 Ry

     iteration #  6     ecut=    40.00 Ry     beta= 0.70
     Davidson diagonalization with overlap

---- Real-time Memory Report at c_bands before calling an iterative solver
            54 MiB given to the printing process from OS
             0 MiB allocation reported by mallinfo(arena+hblkhd)
         24075 MiB available memory on the node where the printing process lives
------------------
     ethr =  1.21E-10,  avg # of iterations =  3.9

     total cpu time spent up to now is        4.0 secs

     End of self-consistent calculation

          k = 0.0000 0.0000 0.0000 (  1935 PWs)   bands (ev):

    -3.2817   4.9381   4.9381   4.9381   6.2558   6.2558   6.2558  13.4578
    13.4579  13.4579

     occupation numbers 
     1.0000   1.0000   1.0000   1.0000   1.0000   1.0000   1.0000   0.0000
     0.0000   0.0000

          k = 0.0000 0.0000 0.1000 (  1895 PWs)   bands (ev):

    -3.1909   3.8260   5.0211   5.0211   6.3433   6.3434   7.5248  11.6929
    11.6929  12.8600

     occupation numbers 
     1.0000   1.0000   1.0000   1.0000   1.0000   1.0000   1.0000   0.0000
     0.0000   0.0000

          k = 0.0000 0.0000 0.2000 (  1895 PWs)   bands (ev):

    -2.9191   2.3964   5.2702   5.2702   6.6041   6.6041   9.4248  10.2730
    10.2730  11.7298

     occupation numbers 
     1.0000   1.0000   1.0000   1.0000   1.0000   1.0000   0.0000   0.0000
     0.0000   0.0000

          k = 0.0000 0.0000 0.3000 (  1907 PWs)   bands (ev):

    -2.4672   1.0927   5.6855   5.6855   7.0300   7.0300   9.0194   9.0194
    10.5784  10.5784

     occupation numbers 
     1.0000   1.0000   1.0000   1.0000   1.0000   1.0000   0.0000   0.0000
     0.0000   0.0000

          k = 0.0000 0.0000 0.4000 (  1912 PWs)   bands (ev):

    -1.8370  -0.0528   6.2676   6.2676   7.5902   7.5902   7.9341   7.9341
     9.5606   9.5607

     occupation numbers 
     1.0000   1.0000   1.0000   1.0000   1.0000   1.0000   0.2424   0.2424
     0.0000   0.0000

          k = 0.0000 0.0000-0.5000 (  1888 PWs)   bands (ev):

    -1.0311  -1.0311   7.0169   7.0169   7.0170   7.0170   8.0197   8.0198
     8.9760   8.9760

     occupation numbers 
     1.0000   1.0000   1.0000   1.0000   1.0000   1.0000   0.0000   0.0000
     0.0000   0.0000

          k = 0.0000 0.1000 0.1000 (  1901 PWs)   bands (ev):

    -3.1003   3.9116   3.9116   5.1041   6.4301   7.6092   7.6092  10.6312
    11.7768  11.7769

     occupation numbers 
     1.0000   1.0000   1.0000   1.0000   1.0000   1.0000   1.0000   0.0000
     0.0000   0.0000

          k = 0.0000 0.1000 0.2000 (  1898 PWs)   bands (ev):

    -2.8286   2.4833   4.1681   5.3532   6.6866   7.8599   9.2702   9.5054
    10.3567  11.8145

     occupation numbers 
     1.0000   1.0000   1.0000   1.0000   1.0000   0.9999   0.0000   0.0000
     0.0000   0.0000

          k = 0.0000 0.1000 0.3000 (  1909 PWs)   bands (ev):

    -2.3770   1.1806   4.5945   5.7686   7.0814   8.0633   8.2649   9.1030
    10.6745  11.7117

     occupation numbers 
     1.0000   1.0000   1.0000   1.0000   1.0000   0.0000   0.0000   0.0000
     0.0000   0.0000

          k = 0.0000 0.1000 0.4000 (  1900 PWs)   bands (ev):

    -1.7473   0.0358   5.1890   6.3508   6.8368   7.8095   8.0175   8.7335
     9.7368  10.6762

     occupation numbers 
     1.0000   1.0000   1.0000   1.0000   1.0000   1.0000   0.0000   0.0000
     0.0000   0.0000

          k = 0.0000 0.1000-0.5000 (  1898 PWs)   bands (ev):

    -0.9419  -0.9418   5.9464   5.9465   7.1003   7.1003   8.4749   8.4749
     9.8315   9.8316

     occupation numbers 
     1.0000   1.0000   1.0000   1.0000   1.0000   1.0000   0.0000   0.0000
     0.0000   0.0000

          k = 0.0000 0.2000 0.2000 (  1893 PWs)   bands (ev):

    -2.5575   2.7439   2.7439   5.6024   6.9069   7.9507   9.7401   9.7401
    10.6076  10.6077

     occupation numbers 
     1.0000   1.0000   1.0000   1.0000   1.0000   0.0273   0.0000   0.0000
     0.0000   0.0000

          k = 0.0000 0.2000 0.3000 (  1901 PWs)   bands (ev):

    -2.1068   1.4440   3.1771   6.0181   6.5361   7.5052   9.3536  10.0551
    11.0203  11.0258

     occupation numbers 
     1.0000   1.0000   1.0000   1.0000   1.0000   1.0000   0.0000   0.0000
     0.0000   0.0000

          k = 0.0000 0.2000 0.4000 (  1907 PWs)   bands (ev):

    -1.4782   0.3014   3.7811   5.4847   6.6005   8.0583   8.2678   9.6680
    10.9298  11.6109

     occupation numbers 
     1.0000   1.0000   1.0000   1.0000   1.0000   0.0000   0.0000   0.0000
     0.0000   0.0000

          k = 0.0000 0.2000-0.5000 (  1896 PWs)   bands (ev):

    -0.6744  -0.6743   4.5527   4.5528   7.3502   7.3503   8.8079   8.8079
    11.6086  11.6087

     occupation numbers 
     1.0000   1.0000   1.0000   1.0000   1.0000   1.0000   0.0000   0.0000
     0.0000   0.0000

          k = 0.0000 0.3000 0.3000 (  1891 PWs)   bands (ev):

    -1.6575   1.8819   1.8819   5.3228   6.4340   7.8938   9.7714   9.7714
    11.1707  11.1708

     occupation numbers 
     1.0000   1.0000   1.0000   1.0000   1.0000   0.9917   0.0000   0.0000
     0.0000   0.0000

          k = 0.0000 0.3000 0.4000 (  1903 PWs)   bands (ev):

    -1.0310   0.7430   2.4926   4.2201   7.0169   8.4902   8.6852  10.1632
    10.3562  11.8118

     occupation numbers 
     1.0000   1.0000   1.0000   1.0000   1.0000   0.0000   0.0000   0.0000
     0.0000   0.0000

          k = 0.0000 0.3000-0.5000 (  1900 PWs)   bands (ev):

    -0.2297  -0.2296   3.2735   3.2735   7.7671   7.7672   9.2530   9.2531
    11.1077  11.1079

     occupation numbers 
     1.0000   1.0000   1.0000   1.0000   1.0000   1.0000   0.0000   0.0000
     0.0000   0.0000

          k = 0.0000 0.4000 0.4000 (  1901 PWs)   bands (ev):

    -0.4072   1.3590   1.3590   3.1026   7.6003   9.0916   9.2696   9.2696
    10.7684  10.7688

     occupation numbers 
     1.0000   1.0000   1.0000   1.0000   1.0000   0.0000   0.0000   0.0000
     0.0000   0.0000

          k = 0.0000 0.4000-0.5000 (  1914 PWs)   bands (ev):

     0.3906   0.3906   2.1467   2.1468   8.3510   8.3511   9.8547   9.8548
    10.0212  10.0213

     occupation numbers 
     1.0000   1.0000   1.0000   1.0000   0.0000   0.0000   0.0000   0.0000
     0.0000   0.0000

          k = 0.0000-0.5000-0.5000 (  1924 PWs)   bands (ev):

     1.1839   1.1839   1.1839   1.1840   9.1023   9.1024   9.1024   9.1024
    10.6138  10.6138

     occupation numbers 
     1.0000   1.0000   1.0000   1.0000   0.0000   0.0000   0.0000   0.0000
     0.0000   0.0000

          k = 0.1000 0.1000 0.1000 (  1899 PWs)   bands (ev):

    -3.0097   3.9971   3.9971   3.9971   7.6921   7.6921   7.6921  10.7165
    10.7165  10.7165

     occupation numbers 
     1.0000   1.0000   1.0000   1.0000   1.0000   1.0000   1.0000   0.0000
     0.0000   0.0000

          k = 0.1000 0.1000 0.2000 (  1900 PWs)   bands (ev):

    -2.7382   2.5702   4.2534   4.2534   7.9325   7.9325   9.3640   9.3640
     9.5790  10.9766

     occupation numbers 
     1.0000   1.0000   1.0000   1.0000   0.2875   0.2873   0.0000   0.0000
     0.0000   0.0000

          k = 0.1000 0.1000 0.3000 (  1906 PWs)   bands (ev):

    -2.2869   1.2685   4.6792   4.6792   7.9806   7.9806   8.4907   8.4907
    11.3060  11.7501

     occupation numbers 
     1.0000   1.0000   1.0000   1.0000   0.0003   0.0003   0.0000   0.0000
     0.0000   0.0000

          k = 0.1000 0.1000 0.4000 (  1905 PWs)   bands (ev):

    -1.6575   0.1244   5.2710   5.2710   6.9747   6.9747   8.9752   8.9752
    10.7762  10.7763

     occupation numbers 
     1.0000   1.0000   1.0000   1.0000   1.0000   1.0000   0.0000   0.0000
     0.0000   0.0000

          k = 0.1000 0.1000-0.5000 (  1900 PWs)   bands (ev):

    -0.8527  -0.8526   5.9186   5.9186   6.1671   6.1671   9.4568   9.4568
    10.1338  10.1339

     occupation numbers 
     1.0000   1.0000   1.0000   1.0000   1.0000   1.0000   0.0000   0.0000
     0.0000   0.0000

          k = 0.1000 0.2000 0.2000 (  1900 PWs)   bands (ev):

    -2.4672   2.8306   2.8306   4.5087   7.8341   8.3580   9.4865   9.4866
     9.9507   9.9507

     occupation numbers 
     1.0000   1.0000   1.0000   1.0000   1.0000   0.0000   0.0000   0.0000
     0.0000   0.0000

          k = 0.1000 0.2000 0.3000 (  1903 PWs)   bands (ev):

    -2.0168   1.5317   3.2634   4.9310   6.6873   8.3189   8.6815   9.9874
    10.2712  12.0624

     occupation numbers 
     1.0000   1.0000   1.0000   1.0000   1.0000   0.0000   0.0000   0.0000
     0.0000   0.0000

          k = 0.1000 0.2000 0.4000 (  1905 PWs)   bands (ev):

    -1.3887   0.3899   3.8667   5.4255   5.6966   7.2354   9.2591  10.5812
    10.6235  11.2405

     occupation numbers 
     1.0000   1.0000   1.0000   1.0000   1.0000   1.0000   0.0000   0.0000
     0.0000   0.0000

          k = 0.1000 0.2000-0.5000 (  1904 PWs)   bands (ev):

    -0.5853  -0.5853   4.6351   4.6352   6.3124   6.3125   9.9882   9.9882
    11.3346  11.3352

     occupation numbers 
     1.0000   1.0000   1.0000   1.0000   1.0000   1.0000   0.0000   0.0000
     0.0000   0.0000

          k = 0.1000 0.3000 0.3000 (  1902 PWs)   bands (ev):

    -1.5679   1.9693   1.9693   5.2589   5.5322   8.7486   8.7487   9.1005
    12.1340  12.1348

     occupation numbers 
     1.0000   1.0000   1.0000   1.0000   1.0000   0.0000   0.0000   0.0000
     0.0000   0.0000

          k = 0.1000 0.3000 0.4000 (  1896 PWs)   bands (ev):

    -0.9417   0.8312   2.5796   4.3029   5.9749   7.6599   9.3400   9.6896
    11.0145  11.3260

     occupation numbers 
     1.0000   1.0000   1.0000   1.0000   1.0000   1.0000   0.0000   0.0000
     0.0000   0.0000

          k = 0.1000 0.3000-0.5000 (  1890 PWs)   bands (ev):

    -0.1409  -0.1408   3.3596   3.3596   6.7329   6.7330  10.0958  10.0958
    10.4382  10.4383

     occupation numbers 
     1.0000   1.0000   1.0000   1.0000   1.0000   1.0000   0.0000   0.0000
     0.0000   0.0000

          k = 0.1000 0.4000 0.4000 (  1905 PWs)   bands (ev):

    -0.3183   1.4468   1.4468   3.1889   6.5643   8.2516   8.2516   9.9319
    10.2815  11.9323

     occupation numbers 
     1.0000   1.0000   1.0000   1.0000   1.0000   0.0000   0.0000   0.0000
     0.0000   0.0000

          k = 0.1000 0.4000-0.5000 (  1904 PWs)   bands (ev):

     0.4790   0.4790   2.2340   2.2341   7.3249   7.3249   9.0096   9.0096
    11.0321  11.0322

     occupation numbers 
     1.0000   1.0000   1.0000   1.0000   1.0000   1.0000   0.0000   0.0000
     0.0000   0.0000

          k = 0.1000-0.5000-0.5000 (  1908 PWs)   bands (ev):

     1.2718   1.2719   1.2719   1.2719   8.0846   8.0846   8.0846   8.0847
    11.7807  11.7808

     occupation numbers 
     1.0000   1.0000   1.0000   1.0000   0.0000   0.0000   0.0000   0.0000
     0.0000   0.0000

          k = 0.2000 0.2000 0.2000 (  1899 PWs)   bands (ev):

    -2.1968   3.0904   3.0904   3.0904   8.1943   8.1943   8.1943  10.1374
    10.1374  10.1374

     occupation numbers 
     1.0000   1.0000   1.0000   1.0000   0.0000   0.0000   0.0000   0.0000
     0.0000   0.0000

          k = 0.2000 0.2000 0.3000 (  1900 PWs)   bands (ev):

    -1.7473   1.7944   3.5220   3.5220   6.9513   6.9513   8.6271  10.5457
    10.5457  11.9736

     occupation numbers 
     1.0000   1.0000   1.0000   1.0000   1.0000   1.0000   0.0000   0.0000
     0.0000   0.0000

          k = 0.2000 0.2000 0.4000 (  1891 PWs)   bands (ev):

    -1.1203   0.6549   4.1211   4.1211   5.8571   5.8572   9.2202  10.8965
    11.1076  11.1076

     occupation numbers 
     1.0000   1.0000   1.0000   1.0000   1.0000   1.0000   0.0000   0.0000
     0.0000   0.0000

          k = 0.2000 0.2000-0.5000 (  1908 PWs)   bands (ev):

    -0.3185  -0.3184   4.7670   4.7670   5.0453   5.0454   9.9773   9.9773
    11.6196  12.1721

     occupation numbers 
     1.0000   1.0000   1.0000   1.0000   1.0000   1.0000   0.0000   0.0000
     0.0000   0.0000

          k = 0.2000 0.3000 0.3000 (  1898 PWs)   bands (ev):

    -1.2992   2.2312   2.2312   3.9493   5.6961   7.3783   7.3783  10.7413
    10.9676  12.5976

     occupation numbers 
     1.0000   1.0000   1.0000   1.0000   1.0000   1.0000   1.0000   0.0000
     0.0000   0.0000

          k = 0.2000 0.3000 0.4000 (  1890 PWs)   bands (ev):

    -0.6742   1.0954   2.8399   4.4331   4.7055   6.2804   7.9727   9.6578
    11.5466  12.9572

     occupation numbers 
     1.0000   1.0000   1.0000   1.0000   1.0000   1.0000   0.0011   0.0000
     0.0000   0.0000

          k = 0.2000 0.3000-0.5000 (  1898 PWs)   bands (ev):

     0.1251   0.1252   3.6157   3.6158   5.3470   5.3471   8.7333   8.7334
    12.2703  12.2703

     occupation numbers 
     1.0000   1.0000   1.0000   1.0000   1.0000   1.0000   0.0000   0.0000
     0.0000   0.0000

          k = 0.2000 0.4000 0.4000 (  1907 PWs)   bands (ev):

    -0.0520   1.7098   1.7098   3.4456   5.1760   6.8760   6.8760   8.5688
    12.1307  13.7333

     occupation numbers 
     1.0000   1.0000   1.0000   1.0000   1.0000   1.0000   1.0000   0.0000
     0.0000   0.0000

          k = 0.2000 0.4000-0.5000 (  1894 PWs)   bands (ev):

     0.7439   0.7439   2.4952   2.4953   5.9413   5.9413   7.6399   7.6400
    12.8651  12.8651

     occupation numbers 
     1.0000   1.0000   1.0000   1.0000   1.0000   1.0000   1.0000   1.0000
     0.0000   0.0000

          k = 0.2000-0.5000-0.5000 (  1900 PWs)   bands (ev):

     1.5352   1.5353   1.5353   1.5353   6.7074   6.7075   6.7075   6.7075
    13.5998  13.5998

     occupation numbers 
     1.0000   1.0000   1.0000   1.0000   1.0000   1.0000   1.0000   1.0000
     0.0000   0.0000

          k = 0.3000 0.3000 0.3000 (  1893 PWs)   bands (ev):

    -0.8525   2.6662   2.6662   2.6662   6.1201   6.1201   6.1201   9.5020
    13.0221  13.0221

     occupation numbers 
     1.0000   1.0000   1.0000   1.0000   1.0000   1.0000   1.0000   0.0000
     0.0000   0.0000

          k = 0.3000 0.3000 0.4000 (  1895 PWs)   bands (ev):

    -0.2294   1.5346   3.2707   3.2707   5.0160   5.0160   6.7167   8.4119
    13.5818  13.5818

     occupation numbers 
     1.0000   1.0000   1.0000   1.0000   1.0000   1.0000   1.0000   0.0000
     0.0000   0.0000

          k = 0.3000 0.3000-0.5000 (  1898 PWs)   bands (ev):

     0.5674   0.5675   3.9314   3.9315   4.1879   4.1880   7.4818   7.4818
    14.5247  14.5250

     occupation numbers 
     1.0000   1.0000   1.0000   1.0000   1.0000   1.0000   1.0000   1.0000
     0.0000   0.0000

          k = 0.3000 0.4000 0.4000 (  1887 PWs)   bands (ev):

     0.3909   2.1469   2.1469   3.7639   4.0133   5.6125   5.6125   7.3160
    14.1590  15.5753

     occupation numbers 
     1.0000   1.0000   1.0000   1.0000   1.0000   1.0000   1.0000   1.0000
     0.0000   0.0000

          k = 0.3000 0.4000-0.5000 (  1890 PWs)   bands (ev):

     1.1843   1.1843   2.9277   2.9277   4.6729   4.6730   6.3810   6.3810
    14.8628  14.8629

     occupation numbers 
     1.0000   1.0000   1.0000   1.0000   1.0000   1.0000   1.0000   1.0000
     0.0000   0.0000

          k = 0.3000-0.5000-0.5000 (  1900 PWs)   bands (ev):

     1.9729   1.9729   1.9729   1.9730   5.4422   5.4422   5.4422   5.4423
    15.5750  15.5751

     occupation numbers 
     1.0000   1.0000   1.0000   1.0000   1.0000   1.0000   1.0000   1.0000
     0.0000   0.0000

          k = 0.4000 0.4000 0.4000 (  1884 PWs)   bands (ev):

     1.0086   2.7545   2.7545   2.7545   4.5032   4.5032   4.5032   6.2138
    16.2986  16.2987

     occupation numbers 
     1.0000   1.0000   1.0000   1.0000   1.0000   1.0000   1.0000   1.0000
     0.0000   0.0000

          k = 0.4000 0.4000-0.5000 (  1900 PWs)   bands (ev):

     1.7983   1.7983   3.4284   3.4284   3.6614   3.6615   5.2738   5.2738
    17.0313  17.0315

     occupation numbers 
     1.0000   1.0000   1.0000   1.0000   1.0000   1.0000   1.0000   1.0000
     0.0000   0.0000

          k = 0.4000-0.5000-0.5000 (  1888 PWs)   bands (ev):

     2.5816   2.5817   2.5817   2.5817   4.3312   4.3313   4.3313   4.3313
    17.5833  17.5833

     occupation numbers 
     1.0000   1.0000   1.0000   1.0000   1.0000   1.0000   1.0000   1.0000
     0.0000   0.0000

          k =-0.5000-0.5000-0.5000 (  1904 PWs)   bands (ev):

     3.2605   3.2605   3.2605   3.2607   3.4842   3.4843   3.4843   3.4843
    19.2667  19.2668

     occupation numbers 
     1.0000   1.0000   1.0000   1.0000   1.0000   1.0000   1.0000   1.0000
     0.0000   0.0000

     the Fermi energy is     7.9264 ev

!    total energy              =    -154.06204421 Ry
     total all-electron energy =     -1938.772822 Ry
     estimated scf accuracy    <          1.9E-09 Ry
     smearing contrib. (-TS)   =      -0.00003809 Ry
     internal energy E=F+TS    =    -154.06200612 Ry

     The total energy is F=E-TS. E is the sum of the following terms:
     one-electron contribution =      12.67728970 Ry
     hartree contribution      =       0.02280583 Ry
     xc contribution           =     -10.34049195 Ry
     ewald contribution        =     -21.62537179 Ry
     one-center paw contrib.   =    -134.79623790 Ry
      -> PAW hartree energy AE =       1.38010695 Ry
      -> PAW hartree energy PS =      -1.37575862 Ry
      -> PAW xc energy AE      =     -35.58754449 Ry
      -> PAW xc energy PS      =       1.88413231 Ry
      -> total E_H with PAW    =       0.02715415 Ry
      -> total E_XC with PAW   =     -44.04390413 Ry

     convergence has been achieved in   6 iterations

     Forces acting on atoms (cartesian axes, Ry/au):

     atom    1 type  1   force =     0.00000000    0.00000000    0.00000000
     atom    2 type  1   force =     0.00000000    0.00000000    0.00000000
     atom    3 type  1   force =     0.00000000    0.00000000    0.00000000
     atom    4 type  1   force =     0.00000000    0.00000000    0.00000000
     The non-local contrib.  to forces
     atom    1 type  1   force =     0.00000000    0.00000000    0.00000000
     atom    2 type  1   force =     0.00000000    0.00000000    0.00000000
     atom    3 type  1   force =     0.00000000    0.00000000    0.00000000
     atom    4 type  1   force =     0.00000000    0.00000000    0.00000000
     The ionic contribution  to forces
     atom    1 type  1   force =    -0.00000000   -0.00000000   -0.00000000
     atom    2 type  1   force =    -0.00000000    0.00000000    0.00000000
     atom    3 type  1   force =     0.00000000   -0.00000000    0.00000000
     atom    4 type  1   force =     0.00000000    0.00000000   -0.00000000
     The local contribution  to forces
     atom    1 type  1   force =     0.00000000    0.00000000   -0.00000000
     atom    2 type  1   force =     0.00000000   -0.00000000    0.00000000
     atom    3 type  1   force =    -0.00000000    0.00000000    0.00000000
     atom    4 type  1   force =    -0.00000000   -0.00000000   -0.00000000
     The core correction contribution to forces
     atom    1 type  1   force =     0.00000000    0.00000000    0.00000000
     atom    2 type  1   force =     0.00000000   -0.00000000   -0.00000000
     atom    3 type  1   force =    -0.00000000    0.00000000   -0.00000000
     atom    4 type  1   force =    -0.00000000   -0.00000000    0.00000000
     The Hubbard contrib.    to forces
     atom    1 type  1   force =     0.00000000    0.00000000    0.00000000
     atom    2 type  1   force =     0.00000000    0.00000000    0.00000000
     atom    3 type  1   force =     0.00000000    0.00000000    0.00000000
     atom    4 type  1   force =     0.00000000    0.00000000    0.00000000
     The SCF correction term to forces
     atom    1 type  1   force =     0.00000000   -0.00000000    0.00000000
     atom    2 type  1   force =     0.00000000    0.00000000   -0.00000000
     atom    3 type  1   force =    -0.00000000    0.00000000   -0.00000000
     atom    4 type  1   force =    -0.00000000    0.00000000    0.00000000

     Total force =     0.000000     Total SCF correction =     0.000000


     Computing stress (Cartesian axis) and pressure

          total   stress  (Ry/bohr**3)                   (kbar)     P=      -12.82
  -0.00008714   0.00000000   0.00000000          -12.82        0.00        0.00
   0.00000000  -0.00008714   0.00000000            0.00      -12.82        0.00
   0.00000000   0.00000000  -0.00008714            0.00        0.00      -12.82

     kinetic stress (kbar)   1469.20      0.00      0.00
                                0.00   1469.20      0.00
                                0.00      0.00   1469.20

     local   stress (kbar)    544.68     -0.00      0.00
                               -0.00    544.68     -0.00
                                0.00     -0.00    544.68

     nonloc. stress (kbar)   1157.46      0.00      0.00
                                0.00   1157.46      0.00
                                0.00      0.00   1157.46

     hartree stress (kbar)      2.52      0.00      0.00
                                0.00      2.52      0.00
                                0.00      0.00      2.52

     exc-cor stress (kbar)    497.35      0.00     -0.00
                                0.00    497.35      0.00
                               -0.00      0.00    497.35

     corecor stress (kbar)  -1299.11      0.00      0.00
                                0.00  -1299.11      0.00
                                0.00      0.00  -1299.11

     ewald   stress (kbar)  -2384.92     -0.00     -0.00
                               -0.00  -2384.92     -0.00
                               -0.00     -0.00  -2384.92

     hubbard stress (kbar)      0.00      0.00      0.00
                                0.00      0.00      0.00
                                0.00      0.00      0.00

     DFT-D   stress (kbar)      0.00      0.00      0.00
                                0.00      0.00      0.00
                                0.00      0.00      0.00

     XDM     stress (kbar)      0.00      0.00      0.00
                                0.00      0.00      0.00
                                0.00      0.00      0.00

     dft-nl  stress (kbar)      0.00      0.00      0.00
                                0.00      0.00      0.00
                                0.00      0.00      0.00

     TS-vdW  stress (kbar)      0.00      0.00      0.00
                                0.00      0.00      0.00
                                0.00      0.00      0.00

     MDB     stress (kbar)      0.00      0.00      0.00
                                0.00      0.00      0.00
                                0.00      0.00      0.00

     3D-RISM stress (kbar)      0.00      0.00      0.00
                                0.00      0.00      0.00
                                0.00      0.00      0.00


     BFGS Geometry Optimization
     Energy error            =      0.0E+00 Ry
     Gradient error          =      0.0E+00 Ry/Bohr
     Cell gradient error     =      1.3E+01 kbar

     number of scf cycles    =   1
     number of bfgs steps    =   0

     enthalpy           new  =    -154.0620442113 Ry

     new trust radius        =       0.0091873195 bohr
ibrav =      1
 celldm(1) =      7.61584406
Input lattice vectors:
     0.99782148     0.00000000     0.00000000
     0.00000000     0.99782148     0.00000000
     0.00000000     0.00000000     0.99782148
New lattice vectors in INITIAL alat:
     0.99782148     0.00000000     0.00000000
     0.00000000     0.99782148     0.00000000
     0.00000000     0.00000000     0.99782148
New lattice vectors in NEW alat (for information only):
     1.00000000     0.00000000     0.00000000
     0.00000000     1.00000000     0.00000000
     0.00000000     0.00000000     1.00000000
Discrepancy in bohr =     0.000000    0.000000    0.000000
     new conv_thr            =       0.0000000100 Ry

     new unit-cell volume =    441.72719 a.u.^3 (    65.45722 Ang^3 )
     density =      2.73978 g/cm^3

CELL_PARAMETERS (alat=  7.63247154)
   0.997821483   0.000000000   0.000000000
   0.000000000   0.997821483   0.000000000
   0.000000000   0.000000000   0.997821483

ATOMIC_POSITIONS (crystal)
Al               0.0000000000        0.0000000000        0.0000000000
Al               0.0000000000        0.5000000000        0.5000000000
Al               0.5000000000        0.0000000000        0.5000000000
Al               0.5000000000        0.5000000000        0.0000000000



     Writing config-only to output data dir ./temp/al-1x1x1.save/ :
     XML data file
     NEW-OLD atomic charge density approx. for the potential

     total cpu time spent up to now is        4.6 secs

     Self-consistent Calculation

     iteration #  1     ecut=    40.00 Ry     beta= 0.70
     Davidson diagonalization with overlap

---- Real-time Memory Report at c_bands before calling an iterative solver
            55 MiB given to the printing process from OS
             0 MiB allocation reported by mallinfo(arena+hblkhd)
         24073 MiB available memory on the node where the printing process lives
------------------
     ethr =  1.00E-06,  avg # of iterations =  2.4

     Threshold (ethr) on eigenvalues was too large:
     Diagonalizing with lowered threshold

     Davidson diagonalization with overlap

---- Real-time Memory Report at c_bands before calling an iterative solver
            55 MiB given to the printing process from OS
             0 MiB allocation reported by mallinfo(arena+hblkhd)
         24072 MiB available memory on the node where the printing process lives
------------------
     ethr =  4.30E-09,  avg # of iterations =  5.4

     total cpu time spent up to now is        5.7 secs

     total energy              =    -154.06224680 Ry
     estimated scf accuracy    <       0.00000021 Ry

     iteration #  2     ecut=    40.00 Ry     beta= 0.70
     Davidson diagonalization with overlap

---- Real-time Memory Report at c_bands before calling an iterative solver
            55 MiB given to the printing process from OS
             0 MiB allocation reported by mallinfo(arena+hblkhd)
         24072 MiB available memory on the node where the printing process lives
------------------
     ethr =  1.72E-09,  avg # of iterations =  1.5

     total cpu time spent up to now is        6.1 secs

     total energy              =    -154.06224674 Ry
     estimated scf accuracy    <       0.00000002 Ry

     iteration #  3     ecut=    40.00 Ry     beta= 0.70
     Davidson diagonalization with overlap

---- Real-time Memory Report at c_bands before calling an iterative solver
            55 MiB given to the printing process from OS
             0 MiB allocation reported by mallinfo(arena+hblkhd)
         24074 MiB available memory on the node where the printing process lives
------------------
     ethr =  1.40E-10,  avg # of iterations =  2.3

     total cpu time spent up to now is        6.6 secs

     End of self-consistent calculation

          k = 0.0000 0.0000 0.0000 (  1935 PWs)   bands (ev):

    -3.2594   4.9900   4.9900   4.9900   6.3221   6.3221   6.3221  13.5561
    13.5562  13.5562

     occupation numbers 
     1.0000   1.0000   1.0000   1.0000   1.0000   1.0000   1.0000   0.0000
     0.0000   0.0000

          k = 0.0000 0.0000 0.1002 (  1895 PWs)   bands (ev):

    -3.1683   3.8765   5.0733   5.0733   6.4099   6.4099   7.5930  11.7690
    11.7690  12.9585

     occupation numbers 
     1.0000   1.0000   1.0000   1.0000   1.0000   1.0000   1.0000   0.0000
     0.0000   0.0000

          k = 0.0000 0.0000 0.2004 (  1895 PWs)   bands (ev):

    -2.8953   2.4419   5.3232   5.3232   6.6711   6.6711   9.4994  10.3443
    10.3443  11.8265

     occupation numbers 
     1.0000   1.0000   1.0000   1.0000   1.0000   1.0000   0.0000   0.0000
     0.0000   0.0000

          k = 0.0000 0.0000 0.3007 (  1907 PWs)   bands (ev):

    -2.4414   1.1332   5.7400   5.7400   7.0973   7.0973   9.0861   9.0861
    10.6730  10.6730

     occupation numbers 
     1.0000   1.0000   1.0000   1.0000   1.0000   1.0000   0.0000   0.0000
     0.0000   0.0000

          k = 0.0000 0.0000 0.4009 (  1912 PWs)   bands (ev):

    -1.8086  -0.0170   6.3242   6.3242   7.6554   7.6554   7.9968   7.9968
     9.6560   9.6560

     occupation numbers 
     1.0000   1.0000   1.0000   1.0000   1.0000   1.0000   0.3747   0.3747
     0.0000   0.0000

          k = 0.0000 0.0000-0.5011 (  1888 PWs)   bands (ev):

    -0.9993  -0.9993   7.0763   7.0763   7.0763   7.0763   8.0759   8.0759
     9.0799   9.0800

     occupation numbers 
     1.0000   1.0000   1.0000   1.0000   1.0000   1.0000   0.0000   0.0000
     0.0000   0.0000

          k = 0.0000 0.1002 0.1002 (  1901 PWs)   bands (ev):

    -3.0772   3.9624   3.9624   5.1565   6.4967   7.6775   7.6775  10.7085
    11.8533  11.8533

     occupation numbers 
     1.0000   1.0000   1.0000   1.0000   1.0000   1.0000   1.0000   0.0000
     0.0000   0.0000

          k = 0.0000 0.1002 0.2004 (  1898 PWs)   bands (ev):

    -2.8044   2.5291   4.2198   5.4065   6.7534   7.9285   9.3440   9.5800
    10.4283  11.9118

     occupation numbers 
     1.0000   1.0000   1.0000   1.0000   1.0000   0.9999   0.0000   0.0000
     0.0000   0.0000

          k = 0.0000 0.1002 0.3007 (  1909 PWs)   bands (ev):

    -2.3509   1.2215   4.6477   5.8235   7.1455   8.1365   8.3331   9.1700
    10.7705  11.8038

     occupation numbers 
     1.0000   1.0000   1.0000   1.0000   1.0000   0.0000   0.0000   0.0000
     0.0000   0.0000

          k = 0.0000 0.1002 0.4009 (  1900 PWs)   bands (ev):

    -1.7184   0.0720   5.2441   6.4078   6.8944   7.8860   8.0806   8.7961
     9.8371  10.7664

     occupation numbers 
     1.0000   1.0000   1.0000   1.0000   1.0000   1.0000   0.0000   0.0000
     0.0000   0.0000

          k = 0.0000 0.1002-0.5011 (  1898 PWs)   bands (ev):

    -0.9096  -0.9096   6.0037   6.0037   7.1599   7.1600   8.5450   8.5450
     9.9246   9.9246

     occupation numbers 
     1.0000   1.0000   1.0000   1.0000   1.0000   1.0000   0.0000   0.0000
     0.0000   0.0000

          k = 0.0000 0.2004 0.2004 (  1893 PWs)   bands (ev):

    -2.5321   2.7907   2.7907   5.6566   6.9705   8.0253   9.8140   9.8140
    10.6803  10.6803

     occupation numbers 
     1.0000   1.0000   1.0000   1.0000   1.0000   0.0091   0.0000   0.0000
     0.0000   0.0000

          k = 0.0000 0.2004 0.3007 (  1901 PWs)   bands (ev):

    -2.0795   1.4859   3.2255   6.0738   6.5921   7.5846   9.4216  10.1239
    11.1001  11.1230

     occupation numbers 
     1.0000   1.0000   1.0000   1.0000   1.0000   1.0000   0.0000   0.0000
     0.0000   0.0000

          k = 0.0000 0.2004 0.4009 (  1907 PWs)   bands (ev):

    -1.4483   0.3388   3.8317   5.5406   6.6584   8.1357   8.3318   9.7431
    11.0248  11.6874

     occupation numbers 
     1.0000   1.0000   1.0000   1.0000   1.0000   0.0000   0.0000   0.0000
     0.0000   0.0000

          k = 0.0000 0.2004-0.5011 (  1896 PWs)   bands (ev):

    -0.6410  -0.6410   4.6060   4.6060   7.4109   7.4109   8.8859   8.8859
    11.7006  11.7006

     occupation numbers 
     1.0000   1.0000   1.0000   1.0000   1.0000   1.0000   0.0000   0.0000
     0.0000   0.0000

          k = 0.0000 0.3007 0.3007 (  1891 PWs)   bands (ev):

    -1.6283   1.9255   1.9255   5.3781   6.4913   7.9715   9.8410   9.8410
    11.2530  11.2530

     occupation numbers 
     1.0000   1.0000   1.0000   1.0000   1.0000   0.9613   0.0000   0.0000
     0.0000   0.0000

          k = 0.0000 0.3007 0.4009 (  1903 PWs)   bands (ev):

    -0.9991   0.7822   2.5386   4.2722   7.0763   8.5693   8.7507  10.2467
    10.4281  11.9024

     occupation numbers 
     1.0000   1.0000   1.0000   1.0000   1.0000   0.0000   0.0000   0.0000
     0.0000   0.0000

          k = 0.0000 0.3007-0.5011 (  1900 PWs)   bands (ev):

    -0.1945  -0.1945   3.3223   3.3223   7.8293   7.8293   9.3345   9.3345
    11.1827  11.1827

     occupation numbers 
     1.0000   1.0000   1.0000   1.0000   1.0000   1.0000   0.0000   0.0000
     0.0000   0.0000

          k = 0.0000 0.4009 0.4009 (  1901 PWs)   bands (ev):

    -0.3728   1.4006   1.4006   3.1508   7.6618   9.1731   9.3374   9.3374
    10.8560  10.8563

     occupation numbers 
     1.0000   1.0000   1.0000   1.0000   1.0000   0.0000   0.0000   0.0000
     0.0000   0.0000

          k = 0.0000 0.4009-0.5011 (  1914 PWs)   bands (ev):

     0.4283   0.4283   2.1914   2.1914   8.4154   8.4154   9.9392   9.9392
    10.0920  10.0920

     occupation numbers 
     1.0000   1.0000   1.0000   1.0000   0.0000   0.0000   0.0000   0.0000
     0.0000   0.0000

          k = 0.0000-0.5011-0.5011 (  1924 PWs)   bands (ev):

     1.2248   1.2248   1.2248   1.2248   9.1695   9.1696   9.1696   9.1696
    10.7015  10.7015

     occupation numbers 
     1.0000   1.0000   1.0000   1.0000   0.0000   0.0000   0.0000   0.0000
     0.0000   0.0000

          k = 0.1002 0.1002 0.1002 (  1899 PWs)   bands (ev):

    -2.9862   4.0482   4.0482   4.0482   7.7605   7.7605   7.7605  10.7942
    10.7942  10.7942

     occupation numbers 
     1.0000   1.0000   1.0000   1.0000   1.0000   1.0000   1.0000   0.0000
     0.0000   0.0000

          k = 0.1002 0.1002 0.2004 (  1900 PWs)   bands (ev):

    -2.7136   2.6164   4.3053   4.3053   8.0002   8.0002   9.4390   9.4390
     9.6529  11.0562

     occupation numbers 
     1.0000   1.0000   1.0000   1.0000   0.2661   0.2660   0.0000   0.0000
     0.0000   0.0000

          k = 0.1002 0.1002 0.3007 (  1906 PWs)   bands (ev):

    -2.2603   1.3097   4.7326   4.7326   8.0413   8.0413   8.5693   8.5693
    11.3808  11.8378

     occupation numbers 
     1.0000   1.0000   1.0000   1.0000   0.0009   0.0009   0.0000   0.0000
     0.0000   0.0000

          k = 0.1002 0.1002 0.4009 (  1905 PWs)   bands (ev):

    -1.6283   0.1610   5.3260   5.3260   7.0369   7.0369   9.0484   9.0484
    10.8683  10.8683

     occupation numbers 
     1.0000   1.0000   1.0000   1.0000   1.0000   1.0000   0.0000   0.0000
     0.0000   0.0000

          k = 0.1002 0.1002-0.5011 (  1900 PWs)   bands (ev):

    -0.8200  -0.8200   5.9710   5.9711   6.2318   6.2318   9.5214   9.5214
    10.2334  10.2334

     occupation numbers 
     1.0000   1.0000   1.0000   1.0000   1.0000   1.0000   0.0000   0.0000
     0.0000   0.0000

          k = 0.1002 0.2004 0.2004 (  1900 PWs)   bands (ev):

    -2.4415   2.8777   2.8778   4.5615   7.8938   8.4387   9.5534   9.5534
    10.0337  10.0337

     occupation numbers 
     1.0000   1.0000   1.0000   1.0000   1.0000   0.0000   0.0000   0.0000
     0.0000   0.0000

          k = 0.1002 0.2004 0.3007 (  1903 PWs)   bands (ev):

    -1.9891   1.5739   3.3122   4.9849   6.7490   8.3859   8.7578  10.0608
    10.3490  12.1580

     occupation numbers 
     1.0000   1.0000   1.0000   1.0000   1.0000   0.0000   0.0000   0.0000
     0.0000   0.0000

          k = 0.1002 0.2004 0.4009 (  1905 PWs)   bands (ev):

    -1.3583   0.4275   3.9176   5.4759   5.7609   7.2992   9.3361  10.6577
    10.6932  11.3422

     occupation numbers 
     1.0000   1.0000   1.0000   1.0000   1.0000   1.0000   0.0000   0.0000
     0.0000   0.0000

          k = 0.1002 0.2004-0.5011 (  1904 PWs)   bands (ev):

    -0.5516  -0.5516   4.6883   4.6883   6.3735   6.3735  10.0653  10.0653
    11.4143  11.4144

     occupation numbers 
     1.0000   1.0000   1.0000   1.0000   1.0000   1.0000   0.0000   0.0000
     0.0000   0.0000

          k = 0.1002 0.3007 0.3007 (  1902 PWs)   bands (ev):

    -1.5383   2.0132   2.0132   5.3086   5.5962   8.8181   8.8181   9.1779
    12.2105  12.2112

     occupation numbers 
     1.0000   1.0000   1.0000   1.0000   1.0000   0.0000   0.0000   0.0000
     0.0000   0.0000

          k = 0.1002 0.3007 0.4009 (  1896 PWs)   bands (ev):

    -0.9095   0.8707   2.6258   4.3550   6.0349   7.7255   9.4120   9.7690
    11.0932  11.4090

     occupation numbers 
     1.0000   1.0000   1.0000   1.0000   1.0000   1.0000   0.0000   0.0000
     0.0000   0.0000

          k = 0.1002 0.3007-0.5011 (  1890 PWs)   bands (ev):

    -0.1053  -0.1053   3.4087   3.4087   6.7953   6.7953  10.1709  10.1709
    10.5199  10.5199

     occupation numbers 
     1.0000   1.0000   1.0000   1.0000   1.0000   1.0000   0.0000   0.0000
     0.0000   0.0000

          k = 0.1002 0.4009 0.4009 (  1905 PWs)   bands (ev):

    -0.2835   1.4887   1.4887   3.2373   6.6261   8.3195   8.3195  10.0064
    10.3634  12.0202

     occupation numbers 
     1.0000   1.0000   1.0000   1.0000   1.0000   0.0000   0.0000   0.0000
     0.0000   0.0000

          k = 0.1002 0.4009-0.5011 (  1904 PWs)   bands (ev):

     0.5171   0.5171   2.2790   2.2790   7.3894   7.3894   9.0805   9.0805
    11.1170  11.1170

     occupation numbers 
     1.0000   1.0000   1.0000   1.0000   1.0000   1.0000   0.0000   0.0000
     0.0000   0.0000

          k = 0.1002-0.5011-0.5011 (  1908 PWs)   bands (ev):

     1.3131   1.3131   1.3131   1.3131   8.1520   8.1520   8.1520   8.1520
    11.8688  11.8689

     occupation numbers 
     1.0000   1.0000   1.0000   1.0000   0.0000   0.0000   0.0000   0.0000
     0.0000   0.0000

          k = 0.2004 0.2004 0.2004 (  1899 PWs)   bands (ev):

    -2.1699   3.1385   3.1385   3.1385   8.2613   8.2613   8.2613  10.2179
    10.2179  10.2179

     occupation numbers 
     1.0000   1.0000   1.0000   1.0000   0.0000   0.0000   0.0000   0.0000
     0.0000   0.0000

          k = 0.2004 0.2004 0.3007 (  1900 PWs)   bands (ev):

    -1.7184   1.8377   3.5716   3.5716   7.0148   7.0148   8.6968  10.6267
    10.6267  12.0569

     occupation numbers 
     1.0000   1.0000   1.0000   1.0000   1.0000   1.0000   0.0000   0.0000
     0.0000   0.0000

          k = 0.2004 0.2004 0.4009 (  1891 PWs)   bands (ev):

    -1.0889   0.6936   4.1724   4.1724   5.9175   5.9175   9.2926  10.9757
    11.1888  11.1888

     occupation numbers 
     1.0000   1.0000   1.0000   1.0000   1.0000   1.0000   0.0000   0.0000
     0.0000   0.0000

          k = 0.2004 0.2004-0.5011 (  1908 PWs)   bands (ev):

    -0.2837  -0.2837   4.8145   4.8145   5.1090   5.1090  10.0527  10.0527
    11.6937  12.2755

     occupation numbers 
     1.0000   1.0000   1.0000   1.0000   1.0000   1.0000   0.0000   0.0000
     0.0000   0.0000

          k = 0.2004 0.3007 0.3007 (  1898 PWs)   bands (ev):

    -1.2684   2.2761   2.2761   4.0000   5.7560   7.4438   7.4438  10.8200
    11.0507  12.6847

     occupation numbers 
     1.0000   1.0000   1.0000   1.0000   1.0000   1.0000   1.0000   0.0000
     0.0000   0.0000

          k = 0.2004 0.3007 0.4009 (  1890 PWs)   bands (ev):

    -0.6409   1.1359   2.8871   4.4793   4.7682   6.3420   8.0405   9.7324
    11.6316  13.0373

     occupation numbers 
     1.0000   1.0000   1.0000   1.0000   1.0000   1.0000   0.0010   0.0000
     0.0000   0.0000

          k = 0.2004 0.3007-0.5011 (  1898 PWs)   bands (ev):

     0.1618   0.1618   3.6653   3.6653   5.4057   5.4057   8.8043   8.8043
    12.3566  12.3566

     occupation numbers 
     1.0000   1.0000   1.0000   1.0000   1.0000   1.0000   0.0000   0.0000
     0.0000   0.0000

          k = 0.2004 0.4009 0.4009 (  1907 PWs)   bands (ev):

    -0.0161   1.7527   1.7527   3.4946   5.2341   6.9399   6.9399   8.6392
    12.2185  13.8263

     occupation numbers 
     1.0000   1.0000   1.0000   1.0000   1.0000   1.0000   1.0000   0.0000
     0.0000   0.0000

          k = 0.2004 0.4009-0.5011 (  1894 PWs)   bands (ev):

     0.7830   0.7830   2.5411   2.5411   6.0017   6.0018   7.7067   7.7067
    12.9557  12.9557

     occupation numbers 
     1.0000   1.0000   1.0000   1.0000   1.0000   1.0000   1.0000   1.0000
     0.0000   0.0000

          k = 0.2004-0.5011-0.5011 (  1900 PWs)   bands (ev):

     1.5775   1.5775   1.5775   1.5775   6.7707   6.7707   6.7707   6.7707
    13.6938  13.6938

     occupation numbers 
     1.0000   1.0000   1.0000   1.0000   1.0000   1.0000   1.0000   1.0000
     0.0000   0.0000

          k = 0.3007 0.3007 0.3007 (  1893 PWs)   bands (ev):

    -0.8199   2.7127   2.7127   2.7127   6.1813   6.1813   6.1813   9.5761
    13.1123  13.1123

     occupation numbers 
[...]

    -2.9509   4.1248   4.1248   4.1248   7.8628   7.8628   7.8628  10.9107
    10.9107  10.9107

     occupation numbers 
     1.0000   1.0000   1.0000   1.0000   1.0000   1.0000   1.0000   0.0000
     0.0000   0.0000

          k = 0.1005 0.1005 0.2011 (  1866 PWs)   bands (ev):

    -2.6765   2.6857   4.3832   4.3832   8.1014   8.1014   9.5516   9.5516
     9.7633  11.1756

     occupation numbers 
     1.0000   1.0000   1.0000   1.0000   0.2625   0.2624   0.0000   0.0000
     0.0000   0.0000

          k = 0.1005 0.1005 0.3016 (  1871 PWs)   bands (ev):

    -2.2204   1.3715   4.8126   4.8126   8.1322   8.1322   8.6870   8.6870
    11.4928  11.9730

     occupation numbers 
     1.0000   1.0000   1.0000   1.0000   0.0039   0.0039   0.0000   0.0000
     0.0000   0.0000

          k = 0.1005 0.1005 0.4022 (  1872 PWs)   bands (ev):

    -1.5844   0.2160   5.4086   5.4086   7.1300   7.1300   9.1577   9.1577
    11.0068  11.0068

     occupation numbers 
     1.0000   1.0000   1.0000   1.0000   1.0000   1.0000   0.0000   0.0000
     0.0000   0.0000

          k = 0.1005 0.1005-0.5027 (  1878 PWs)   bands (ev):

    -0.7711  -0.7711   6.0497   6.0497   6.3288   6.3288   9.6181   9.6181
    10.3830  10.3830

     occupation numbers 
     1.0000   1.0000   1.0000   1.0000   1.0000   1.0000   0.0000   0.0000
     0.0000   0.0000

          k = 0.1005 0.2011 0.2011 (  1877 PWs)   bands (ev):

    -2.4027   2.9485   2.9485   4.6406   7.9832   8.5597   9.6535   9.6535
    10.1578  10.1578

     occupation numbers 
     1.0000   1.0000   1.0000   1.0000   1.0000   0.0000   0.0000   0.0000
     0.0000   0.0000

          k = 0.1005 0.2011 0.3016 (  1883 PWs)   bands (ev):

    -1.9475   1.6373   3.3853   5.0657   6.8414   8.4863   8.8723  10.1708
    10.4654  12.3021

     occupation numbers 
     1.0000   1.0000   1.0000   1.0000   1.0000   0.0000   0.0000   0.0000
     0.0000   0.0000

          k = 0.1005 0.2011 0.4022 (  1864 PWs)   bands (ev):

    -1.3127   0.4841   3.9938   5.5515   5.8573   7.3949   9.4515  10.7722
    10.7977  11.4949

     occupation numbers 
     1.0000   1.0000   1.0000   1.0000   1.0000   1.0000   0.0000   0.0000
     0.0000   0.0000

          k = 0.1005 0.2011-0.5027 (  1874 PWs)   bands (ev):

    -0.5010  -0.5010   4.7680   4.7680   6.4651   6.4652  10.1806  10.1806
    11.5338  11.5342

     occupation numbers 
     1.0000   1.0000   1.0000   1.0000   1.0000   1.0000   0.0000   0.0000
     0.0000   0.0000

          k = 0.1005 0.3016 0.3016 (  1863 PWs)   bands (ev):

    -1.4938   2.0791   2.0791   5.3832   5.6920   8.9221   8.9221   9.2940
    12.3234  12.3259

     occupation numbers 
     1.0000   1.0000   1.0000   1.0000   1.0000   0.0000   0.0000   0.0000
     0.0000   0.0000

          k = 0.1005 0.3016 0.4022 (  1866 PWs)   bands (ev):

    -0.8611   0.9299   2.6952   4.4329   6.1250   7.8239   9.5199   9.8880
    11.2112  11.5330

     occupation numbers 
     1.0000   1.0000   1.0000   1.0000   1.0000   1.0000   0.0000   0.0000
     0.0000   0.0000

          k = 0.1005 0.3016-0.5027 (  1880 PWs)   bands (ev):

    -0.0520  -0.0520   3.4822   3.4823   6.8888   6.8888  10.2833  10.2833
    10.6421  10.6421

     occupation numbers 
     1.0000   1.0000   1.0000   1.0000   1.0000   1.0000   0.0000   0.0000
     0.0000   0.0000

          k = 0.1005 0.4022 0.4022 (  1867 PWs)   bands (ev):

    -0.2312   1.5516   1.5516   3.3100   6.7188   8.4214   8.4214  10.1181
    10.4862  12.1519

     occupation numbers 
     1.0000   1.0000   1.0000   1.0000   1.0000   0.0000   0.0000   0.0000
     0.0000   0.0000

          k = 0.1005 0.4022-0.5027 (  1868 PWs)   bands (ev):

     0.5742   0.5742   2.3464   2.3464   7.4861   7.4861   9.1868   9.1868
    11.2441  11.2441

     occupation numbers 
     1.0000   1.0000   1.0000   1.0000   1.0000   1.0000   0.0000   0.0000
     0.0000   0.0000

          k = 0.1005-0.5027-0.5027 (  1860 PWs)   bands (ev):

     1.3749   1.3749   1.3749   1.3749   8.2530   8.2530   8.2530   8.2531
    12.0008  12.0008

     occupation numbers 
     1.0000   1.0000   1.0000   1.0000   0.0000   0.0000   0.0000   0.0000
     0.0000   0.0000

          k = 0.2011 0.2011 0.2011 (  1887 PWs)   bands (ev):

    -2.1294   3.2106   3.2106   3.2106   8.3617   8.3617   8.3617  10.3385
    10.3385  10.3385

     occupation numbers 
     1.0000   1.0000   1.0000   1.0000   0.0000   0.0000   0.0000   0.0000
     0.0000   0.0000

          k = 0.2011 0.2011 0.3016 (  1878 PWs)   bands (ev):

    -1.6751   1.9026   3.6459   3.6459   7.1102   7.1102   8.8012  10.7481
    10.7481  12.1819

     occupation numbers 
     1.0000   1.0000   1.0000   1.0000   1.0000   1.0000   0.0000   0.0000
     0.0000   0.0000

          k = 0.2011 0.2011 0.4022 (  1857 PWs)   bands (ev):

    -1.0415   0.7518   4.2493   4.2493   6.0081   6.0081   9.4009  11.0943
    11.3101  11.3101

     occupation numbers 
     1.0000   1.0000   1.0000   1.0000   1.0000   1.0000   0.0000   0.0000
     0.0000   0.0000

          k = 0.2011 0.2011-0.5027 (  1872 PWs)   bands (ev):

    -0.2314  -0.2314   4.8858   4.8858   5.2044   5.2044  10.1658  10.1658
    11.8048  11.8049

     occupation numbers 
     1.0000   1.0000   1.0000   1.0000   1.0000   1.0000   0.0000   0.0000
     0.0000   0.0000

          k = 0.2011 0.3016 0.3016 (  1865 PWs)   bands (ev):

    -1.2223   2.3435   2.3435   4.0760   5.8459   7.5419   7.5419  10.9380
    11.1751  12.8150

     occupation numbers 
     1.0000   1.0000   1.0000   1.0000   1.0000   1.0000   1.0000   0.0000
     0.0000   0.0000

          k = 0.2011 0.3016 0.4022 (  1865 PWs)   bands (ev):

    -0.5908   1.1967   2.9578   4.5485   4.8623   6.4344   8.1423   9.8441
    11.7589  13.1573

     occupation numbers 
     1.0000   1.0000   1.0000   1.0000   1.0000   1.0000   0.0009   0.0000
     0.0000   0.0000

          k = 0.2011 0.3016-0.5027 (  1870 PWs)   bands (ev):

     0.2168   0.2168   3.7396   3.7396   5.4938   5.4938   8.9106   8.9106
    12.4856  12.4857

     occupation numbers 
     1.0000   1.0000   1.0000   1.0000   1.0000   1.0000   0.0000   0.0000
     0.0000   0.0000

          k = 0.2011 0.4022 0.4022 (  1872 PWs)   bands (ev):

     0.0379   1.8171   1.8171   3.5680   5.3213   7.0356   7.0356   8.7447
    12.3501  13.9655

     occupation numbers 
     1.0000   1.0000   1.0000   1.0000   1.0000   1.0000   1.0000   0.0000
     0.0000   0.0000

          k = 0.2011 0.4022-0.5027 (  1856 PWs)   bands (ev):

     0.8417   0.8418   2.6099   2.6099   6.0924   6.0924   7.8069   7.8069
    13.0914  13.0914

     occupation numbers 
     1.0000   1.0000   1.0000   1.0000   1.0000   1.0000   1.0000   1.0000
     0.0000   0.0000

          k = 0.2011-0.5027-0.5027 (  1856 PWs)   bands (ev):

     1.6409   1.6409   1.6409   1.6409   6.8656   6.8656   6.8656   6.8656
    13.8347  13.8347

     occupation numbers 
     1.0000   1.0000   1.0000   1.0000   1.0000   1.0000   1.0000   1.0000
     0.0000   0.0000

          k = 0.3016 0.3016 0.3016 (  1863 PWs)   bands (ev):

    -0.7709   2.7824   2.7824   2.7824   6.2730   6.2730   6.2730   9.6873
    13.2474  13.2474

     occupation numbers 
     1.0000   1.0000   1.0000   1.0000   1.0000   1.0000   1.0000   0.0000
     0.0000   0.0000

          k = 0.3016 0.3016 0.4022 (  1864 PWs)   bands (ev):

    -0.1414   1.6402   3.3914   3.3914   5.1601   5.1601   6.8753   8.5869
    13.8103  13.8103

     occupation numbers 
     1.0000   1.0000   1.0000   1.0000   1.0000   1.0000   1.0000   0.0000
     0.0000   0.0000

          k = 0.3016 0.3016-0.5027 (  1844 PWs)   bands (ev):

     0.6635   0.6635   4.0418   4.0419   4.3409   4.3409   7.6478   7.6478
    14.3302  14.3305

     occupation numbers 
     1.0000   1.0000   1.0000   1.0000   1.0000   1.0000   1.0000   1.0000
     0.0000   0.0000

          k = 0.3016 0.4022 0.4022 (  1860 PWs)   bands (ev):

     0.4852   2.2582   2.2582   3.8726   4.1648   5.7610   5.7610   7.4806
    14.3967  15.8083

     occupation numbers 
     1.0000   1.0000   1.0000   1.0000   1.0000   1.0000   1.0000   1.0000
     0.0000   0.0000

          k = 0.3016 0.4022-0.5027 (  1858 PWs)   bands (ev):

     1.2865   1.2865   3.0453   3.0453   4.8138   4.8138   6.5367   6.5367
    15.1064  15.1064

     occupation numbers 
     1.0000   1.0000   1.0000   1.0000   1.0000   1.0000   1.0000   1.0000
     0.0000   0.0000

          k = 0.3016-0.5027-0.5027 (  1856 PWs)   bands (ev):

     2.0826   2.0826   2.0826   2.0826   5.5892   5.5892   5.5892   5.5892
    15.8287  15.8287

     occupation numbers 
     1.0000   1.0000   1.0000   1.0000   1.0000   1.0000   1.0000   1.0000
     0.0000   0.0000

          k = 0.4022 0.4022 0.4022 (  1866 PWs)   bands (ev):

     1.1090   2.8706   2.8706   2.8706   4.6425   4.6425   4.6425   6.3681
    16.5563  16.5563

     occupation numbers 
     1.0000   1.0000   1.0000   1.0000   1.0000   1.0000   1.0000   1.0000
     0.0000   0.0000

          k = 0.4022 0.4022-0.5027 (  1868 PWs)   bands (ev):

     1.9063   1.9063   3.5339   3.5339   3.8098   3.8098   5.4193   5.4193
    17.0927  17.3218

     occupation numbers 
     1.0000   1.0000   1.0000   1.0000   1.0000   1.0000   1.0000   1.0000
     0.0000   0.0000

          k = 0.4022-0.5027-0.5027 (  1864 PWs)   bands (ev):

     2.6962   2.6962   2.6962   2.6962   4.4689   4.4689   4.4689   4.4689
    17.8575  17.8575

     occupation numbers 
     1.0000   1.0000   1.0000   1.0000   1.0000   1.0000   1.0000   1.0000
     0.0000   0.0000

          k =-0.5027-0.5027-0.5027 (  1856 PWs)   bands (ev):

     3.3644   3.3644   3.3644   3.3644   3.6311   3.6311   3.6311   3.6311
    19.6103  19.6103

     occupation numbers 
     1.0000   1.0000   1.0000   1.0000   1.0000   1.0000   1.0000   1.0000
     0.0000   0.0000

     the Fermi energy is     8.0944 ev

!    total energy              =    -154.06235386 Ry
     total all-electron energy =     -1938.773132 Ry
     estimated scf accuracy    <          6.6E-11 Ry
     smearing contrib. (-TS)   =      -0.00004440 Ry
     internal energy E=F+TS    =    -154.06230946 Ry

     The total energy is F=E-TS. E is the sum of the following terms:
     one-electron contribution =      12.83621631 Ry
     hartree contribution      =       0.02326836 Ry
     xc contribution           =     -10.37642287 Ry
     ewald contribution        =     -21.74312129 Ry
     one-center paw contrib.   =    -134.80224997 Ry
      -> PAW hartree energy AE =       1.41256164 Ry
      -> PAW hartree energy PS =      -1.40815483 Ry
      -> PAW xc energy AE      =     -35.60429448 Ry
      -> PAW xc energy PS      =       1.89932440 Ry
      -> total E_H with PAW    =       0.02767517 Ry
      -> total E_XC with PAW   =     -44.08139295 Ry

     convergence has been achieved in   8 iterations

     Forces acting on atoms (cartesian axes, Ry/au):

     atom    1 type  1   force =     0.00000000    0.00000000    0.00000000
     atom    2 type  1   force =     0.00000000    0.00000000    0.00000000
     atom    3 type  1   force =     0.00000000    0.00000000    0.00000000
     atom    4 type  1   force =     0.00000000    0.00000000    0.00000000
     The non-local contrib.  to forces
     atom    1 type  1   force =     0.00000000    0.00000000    0.00000000
     atom    2 type  1   force =     0.00000000    0.00000000    0.00000000
     atom    3 type  1   force =     0.00000000    0.00000000    0.00000000
     atom    4 type  1   force =     0.00000000    0.00000000    0.00000000
     The ionic contribution  to forces
     atom    1 type  1   force =    -0.00000000   -0.00000000   -0.00000000
     atom    2 type  1   force =    -0.00000000    0.00000000    0.00000000
     atom    3 type  1   force =     0.00000000   -0.00000000    0.00000000
     atom    4 type  1   force =     0.00000000    0.00000000   -0.00000000
     The local contribution  to forces
     atom    1 type  1   force =     0.00000000    0.00000000    0.00000000
     atom    2 type  1   force =     0.00000000   -0.00000000   -0.00000000
     atom    3 type  1   force =    -0.00000000    0.00000000   -0.00000000
     atom    4 type  1   force =    -0.00000000   -0.00000000    0.00000000
     The core correction contribution to forces
     atom    1 type  1   force =     0.00000000    0.00000000    0.00000000
     atom    2 type  1   force =    -0.00000000   -0.00000000   -0.00000000
     atom    3 type  1   force =    -0.00000000    0.00000000   -0.00000000
     atom    4 type  1   force =    -0.00000000   -0.00000000    0.00000000
     The Hubbard contrib.    to forces
     atom    1 type  1   force =     0.00000000    0.00000000    0.00000000
     atom    2 type  1   force =     0.00000000    0.00000000    0.00000000
     atom    3 type  1   force =     0.00000000    0.00000000    0.00000000
     atom    4 type  1   force =     0.00000000    0.00000000    0.00000000
     The SCF correction term to forces
     atom    1 type  1   force =     0.00000000    0.00000000    0.00000000
     atom    2 type  1   force =     0.00000000   -0.00000000    0.00000000
     atom    3 type  1   force =     0.00000000    0.00000000    0.00000000
     atom    4 type  1   force =    -0.00000000    0.00000000    0.00000000

     Total force =     0.000000     Total SCF correction =     0.000000


     Computing stress (Cartesian axis) and pressure

          total   stress  (Ry/bohr**3)                   (kbar)     P=        0.01
   0.00000010   0.00000000   0.00000000            0.01        0.00        0.00
   0.00000000   0.00000010   0.00000000            0.00        0.01        0.00
   0.00000000   0.00000000   0.00000010            0.00        0.00        0.01

     kinetic stress (kbar)   1509.17      0.00      0.00
                                0.00   1509.17      0.00
                                0.00      0.00   1509.17

     local   stress (kbar)    563.87     -0.00     -0.00
                               -0.00    563.87     -0.00
                               -0.00     -0.00    563.87

     nonloc. stress (kbar)   1180.97      0.00      0.00
                                0.00   1180.97      0.00
                                0.00      0.00   1180.97

     hartree stress (kbar)      2.61      0.00      0.00
                                0.00      2.61     -0.00
                                0.00     -0.00      2.61

     exc-cor stress (kbar)    502.54     -0.00     -0.00
                               -0.00    502.54     -0.00
                               -0.00     -0.00    502.54

     corecor stress (kbar)  -1321.85      0.00      0.00
                                0.00  -1321.85      0.00
                                0.00      0.00  -1321.85

     ewald   stress (kbar)  -2437.29      0.00     -0.00
                                0.00  -2437.29     -0.00
                               -0.00     -0.00  -2437.29

     hubbard stress (kbar)      0.00      0.00      0.00
                                0.00      0.00      0.00
                                0.00      0.00      0.00

     DFT-D   stress (kbar)      0.00      0.00      0.00
                                0.00      0.00      0.00
                                0.00      0.00      0.00

     XDM     stress (kbar)      0.00      0.00      0.00
                                0.00      0.00      0.00
                                0.00      0.00      0.00

     dft-nl  stress (kbar)      0.00      0.00      0.00
                                0.00      0.00      0.00
                                0.00      0.00      0.00

     TS-vdW  stress (kbar)      0.00      0.00      0.00
                                0.00      0.00      0.00
                                0.00      0.00      0.00

     MDB     stress (kbar)      0.00      0.00      0.00
                                0.00      0.00      0.00
                                0.00      0.00      0.00

     3D-RISM stress (kbar)      0.00      0.00      0.00
                                0.00      0.00      0.00
                                0.00      0.00      0.00


     Writing all to output data dir ./temp/al-1x1x1.save/ :
     XML data file, charge density, pseudopotentials, collected wavefunctions

     init_run     :      0.74s CPU      0.77s WALL (       2 calls)
     electrons    :     13.43s CPU     13.81s WALL (       5 calls)
     update_pot   :      0.19s CPU      0.20s WALL (       3 calls)
     forces       :      0.51s CPU      0.52s WALL (       5 calls)
     stress       :      1.63s CPU      1.64s WALL (       5 calls)

     Called by init_run:
     wfcinit      :      0.35s CPU      0.37s WALL (       2 calls)
     wfcinit:atom :      0.00s CPU      0.00s WALL (     112 calls)
     wfcinit:wfcr :      0.33s CPU      0.34s WALL (     112 calls)
     potinit      :      0.21s CPU      0.22s WALL (       2 calls)
     hinit0       :      0.11s CPU      0.11s WALL (       2 calls)

     Called by electrons:
     c_bands      :     10.15s CPU     10.43s WALL (      26 calls)
     sum_band     :      1.58s CPU      1.63s WALL (      26 calls)
     v_of_rho     :      0.10s CPU      0.11s WALL (      27 calls)
     v_h          :      0.01s CPU      0.01s WALL (      27 calls)
     v_xc         :      0.13s CPU      0.14s WALL (      37 calls)
     newd         :      0.40s CPU      0.41s WALL (      27 calls)
     PAW_pot      :      1.70s CPU      1.74s WALL (      30 calls)
     mix_rho      :      0.01s CPU      0.01s WALL (      26 calls)

     Called by c_bands:
     init_us_2    :      0.26s CPU      0.27s WALL (    3752 calls)
     cegterg      :      9.56s CPU      9.83s WALL (    1456 calls)

     Called by sum_band:
     sum_band:wei :      0.00s CPU      0.00s WALL (      26 calls)
     sum_band:loo :      1.22s CPU      1.27s WALL (      26 calls)
     sum_band:buf :      0.01s CPU      0.01s WALL (    1456 calls)
     sum_band:ini :      0.10s CPU      0.10s WALL (    1456 calls)
     sum_band:cal :      0.39s CPU      0.41s WALL (    1624 calls)
     sum_band:bec :      0.03s CPU      0.04s WALL (    1624 calls)
     addusdens    :      0.33s CPU      0.33s WALL (      26 calls)
                                        0.00s GPU  (      26 calls)
     addusd:skk   :      0.00s CPU      0.00s WALL (      26 calls)
                                        0.00s GPU  (      26 calls)

     Called by *egterg:
     cdiaghg      :      0.72s CPU      0.75s WALL (    6487 calls)
     cegterg:over :      0.49s CPU      0.51s WALL (    5423 calls)
     cegterg:upda :      0.19s CPU      0.20s WALL (    5423 calls)
     cegterg:last :      0.52s CPU      0.53s WALL (    4059 calls)
     h_psi        :      6.45s CPU      6.65s WALL (    6991 calls)
     s_psi        :      1.12s CPU      1.16s WALL (    6991 calls)
     g_psi        :      0.06s CPU      0.06s WALL (    5423 calls)

     Called by h_psi:
     h_psi:calbec :      1.23s CPU      1.28s WALL (    6991 calls)
     vloc_psi     :      4.07s CPU      4.16s WALL (    6991 calls)
     add_vuspsi   :      1.12s CPU      1.17s WALL (    6991 calls)

     General routines
     calbec       :      1.98s CPU      2.06s WALL (   10015 calls)
     fft          :      0.14s CPU      0.15s WALL (     473 calls)
     ffts         :      0.09s CPU      0.09s WALL (      53 calls)
     fftw         :      3.45s CPU      3.54s WALL (  113342 calls)
     interpolate  :      0.09s CPU      0.09s WALL (      27 calls)

     Parallel routines

     PAW routines
     PAW_pot      :      1.70s CPU      1.74s WALL (      30 calls)
     PAW_symme    :      0.02s CPU      0.02s WALL (      56 calls)

     PWSCF        :     16.92s CPU     17.39s WALL


   This run was terminated on:  18:22:37  18Dec2025            

=------------------------------------------------------------------------------=
   JOB DONE.
=------------------------------------------------------------------------------=
