
     Program PWSCF v.7.3.1 starts on 25Dec2024 at 20:53:21 

     This program is part of the open-source Quantum ESPRESSO suite
     for quantum simulation of materials; please cite
         "P. Giannozzi et al., J. Phys.:Condens. Matter 21 395502 (2009);
         "P. Giannozzi et al., J. Phys.:Condens. Matter 29 465901 (2017);
         "P. Giannozzi et al., J. Chem. Phys. 152 154105 (2020);
          URL http://www.quantum-espresso.org", 
     in publications or presentations arising from this work. More details at
     http://www.quantum-espresso.org/quote

     Parallel version (MPI), running on     4 processors

     MPI processes distributed on     1 nodes
     9102 MiB available memory on the printing compute node when the environment starts

     Reading input from vc_relax.in

     Current dimensions of program PWSCF are:
     Max number of different atomic species (ntypx) = 10
     Max number of k-points (npk) =  40000
     Max angular momentum in pseudopotentials (lmaxx) =  4
     file C.pbesol-n-kjpaw_psl.1.0.0.UPF: wavefunction(s)  2S 2P renormalized

     R & G space division:  proc/nbgrp/npool/nimage =       4
     Subspace diagonalization in iterative solution of the eigenvalue problem:
     a serial algorithm will be used


     Parallelization info
     --------------------
     sticks:   dense  smooth     PW     G-vecs:    dense   smooth      PW
     Min         118      60     21                 6686     2388     447
     Max         119      61     22                 6699     2397     454
     Sum         475     241     85                26777     9563    1799

     Using Slab Decomposition



     bravais-lattice index     =            4
     lattice parameter (alat)  =       4.6625  a.u.
     unit-cell volume          =     277.6091 (a.u.)^3
     number of atoms/cell      =            4
     number of atomic types    =            1
     number of electrons       =        16.00
     number of Kohn-Sham states=           12
     kinetic-energy cutoff     =      40.0000  Ry
     charge density cutoff     =     320.0000  Ry
     scf convergence threshold =      1.0E-07
     mixing beta               =       0.7000
     number of iterations used =            8  plain     mixing
     energy convergence thresh.=      1.0E-05
     force convergence thresh. =      1.0E-04
     press convergence thresh. =      5.0E-01
     Exchange-correlation= SLA  PW   PSX  PSC
                           (   1   4  10   8   0   0   0)
     nstep                     =           50


     celldm(1)=   4.662505  celldm(2)=   0.000000  celldm(3)=   3.162607
     celldm(4)=   0.000000  celldm(5)=   0.000000  celldm(6)=   0.000000

     crystal axes: (cart. coord. in units of alat)
               a(1) = (   1.000000   0.000000   0.000000 )  
               a(2) = (  -0.500000   0.866025   0.000000 )  
               a(3) = (   0.000000   0.000000   3.162607 )  

     reciprocal axes: (cart. coord. in units 2 pi/alat)
               b(1) = (  1.000000  0.577350 -0.000000 )  
               b(2) = (  0.000000  1.154701  0.000000 )  
               b(3) = (  0.000000 -0.000000  0.316195 )  


     PseudoPot. # 1 for C  read from file:
     ./../../pseudos/C.pbesol-n-kjpaw_psl.1.0.0.UPF
     MD5 check sum: f9b2fe17d1f478429498b05d17159f9e
     Pseudo is Projector augmented-wave + core cor, Zval =  4.0
     Generated using &quot;atomic&quot; code by A. Dal Corso  v.6.3
     Shape of augmentation charge: PSQ
     Using radial grid of 1073 points,  4 beta functions with: 
                l(1) =   0
                l(2) =   0
                l(3) =   1
                l(4) =   1
     Q(r) pseudized with 0 coefficients 


     atomic species   valence    mass     pseudopotential
     C                 4.00    12.01100     C ( 1.00)

     24 Sym. Ops., with inversion, found (12 have fractional translation)



   Cartesian axes

     site n.     atom                  positions (alat units)
         1        C      tau(   1) = (   0.0000000   0.0000000   0.7906518  )
         2        C      tau(   2) = (   0.0000000   0.0000000   2.3719553  )
         3        C      tau(   3) = (   0.0000000   0.5773503   0.7906518  )
         4        C      tau(   4) = (   0.5000000   0.2886751   2.3719553  )

     number of k points=    57  Gaussian smearing, width (Ry)=  0.0200
                       cart. coord. in units 2pi/alat
        k(    1) = (   0.0000000   0.0000000   0.0000000), wk =   0.0034722
        k(    2) = (   0.0000000   0.0000000   0.0790487), wk =   0.0069444
        k(    3) = (   0.0000000   0.0000000  -0.1580974), wk =   0.0034722
        k(    4) = (   0.0000000   0.0962250   0.0000000), wk =   0.0208333
        k(    5) = (   0.0000000   0.0962250   0.0790487), wk =   0.0416667
        k(    6) = (   0.0000000   0.0962250  -0.1580974), wk =   0.0208333
        k(    7) = (   0.0000000   0.1924501   0.0000000), wk =   0.0208333
        k(    8) = (   0.0000000   0.1924501   0.0790487), wk =   0.0416667
        k(    9) = (   0.0000000   0.1924501  -0.1580974), wk =   0.0208333
        k(   10) = (   0.0000000   0.2886751   0.0000000), wk =   0.0208333
        k(   11) = (   0.0000000   0.2886751   0.0790487), wk =   0.0416667
        k(   12) = (   0.0000000   0.2886751  -0.1580974), wk =   0.0208333
        k(   13) = (   0.0000000   0.3849002   0.0000000), wk =   0.0208333
        k(   14) = (   0.0000000   0.3849002   0.0790487), wk =   0.0416667
        k(   15) = (   0.0000000   0.3849002  -0.1580974), wk =   0.0208333
        k(   16) = (   0.0000000   0.4811252   0.0000000), wk =   0.0208333
        k(   17) = (   0.0000000   0.4811252   0.0790487), wk =   0.0416667
        k(   18) = (   0.0000000   0.4811252  -0.1580974), wk =   0.0208333
        k(   19) = (   0.0000000  -0.5773503   0.0000000), wk =   0.0104167
        k(   20) = (   0.0000000  -0.5773503   0.0790487), wk =   0.0208333
        k(   21) = (   0.0000000  -0.5773503  -0.1580974), wk =   0.0104167
        k(   22) = (   0.0833333   0.1443376   0.0000000), wk =   0.0208333
        k(   23) = (   0.0833333   0.1443376   0.0790487), wk =   0.0416667
        k(   24) = (   0.0833333   0.1443376  -0.1580974), wk =   0.0208333
        k(   25) = (   0.0833333   0.2405626   0.0000000), wk =   0.0416667
        k(   26) = (   0.0833333   0.2405626   0.0790487), wk =   0.0833333
        k(   27) = (   0.0833333   0.2405626  -0.1580974), wk =   0.0416667
        k(   28) = (   0.0833333   0.3367877   0.0000000), wk =   0.0416667
        k(   29) = (   0.0833333   0.3367877   0.0790487), wk =   0.0833333
        k(   30) = (   0.0833333   0.3367877  -0.1580974), wk =   0.0416667
        k(   31) = (   0.0833333   0.4330127   0.0000000), wk =   0.0416667
        k(   32) = (   0.0833333   0.4330127   0.0790487), wk =   0.0833333
        k(   33) = (   0.0833333   0.4330127  -0.1580974), wk =   0.0416667
        k(   34) = (   0.0833333   0.5292377   0.0000000), wk =   0.0416667
        k(   35) = (   0.0833333   0.5292377   0.0790487), wk =   0.0833333
        k(   36) = (   0.0833333   0.5292377  -0.1580974), wk =   0.0416667
        k(   37) = (   0.1666667   0.2886751   0.0000000), wk =   0.0208333
        k(   38) = (   0.1666667   0.2886751   0.0790487), wk =   0.0416667
        k(   39) = (   0.1666667   0.2886751  -0.1580974), wk =   0.0208333
        k(   40) = (   0.1666667   0.3849002   0.0000000), wk =   0.0416667
        k(   41) = (   0.1666667   0.3849002   0.0790487), wk =   0.0833333
        k(   42) = (   0.1666667   0.3849002  -0.1580974), wk =   0.0416667
        k(   43) = (   0.1666667   0.4811252   0.0000000), wk =   0.0416667
        k(   44) = (   0.1666667   0.4811252   0.0790487), wk =   0.0833333
        k(   45) = (   0.1666667   0.4811252  -0.1580974), wk =   0.0416667
        k(   46) = (   0.1666667   0.5773503   0.0000000), wk =   0.0208333
        k(   47) = (   0.1666667   0.5773503   0.0790487), wk =   0.0416667
        k(   48) = (   0.1666667   0.5773503  -0.1580974), wk =   0.0208333
        k(   49) = (   0.2500000   0.4330127   0.0000000), wk =   0.0208333
        k(   50) = (   0.2500000   0.4330127   0.0790487), wk =   0.0416667
        k(   51) = (   0.2500000   0.4330127  -0.1580974), wk =   0.0208333
        k(   52) = (   0.2500000   0.5292377   0.0000000), wk =   0.0416667
        k(   53) = (   0.2500000   0.5292377   0.0790487), wk =   0.0833333
        k(   54) = (   0.2500000   0.5292377  -0.1580974), wk =   0.0416667
        k(   55) = (   0.3333333   0.5773503   0.0000000), wk =   0.0069444
        k(   56) = (   0.3333333   0.5773503   0.0790487), wk =   0.0138889
        k(   57) = (   0.3333333   0.5773503  -0.1580974), wk =   0.0069444

     Dense  grid:    26777 G-vectors     FFT dimensions: (  27,  27,  90)

     Smooth grid:     9563 G-vectors     FFT dimensions: (  20,  20,  60)

     Estimated max dynamical RAM per process >      13.48 MB

     Estimated total dynamical RAM >      53.94 MB

     Check: negative core charge=   -0.000011

     Initial potential from superposition of free atoms

     starting charge      15.9998, renormalised to      16.0000
     Starting wfcs are   16 randomized atomic wfcs
     Checking if some PAW data can be deallocated... 

     total cpu time spent up to now is        0.6 secs

     Self-consistent Calculation

     iteration #  1     ecut=    40.00 Ry     beta= 0.70
     Davidson diagonalization with overlap
     ethr =  1.00E-02,  avg # of iterations =  2.9

     total cpu time spent up to now is        1.1 secs

     total energy              =     -72.41347211 Ry
     estimated scf accuracy    <       0.37122049 Ry

     iteration #  2     ecut=    40.00 Ry     beta= 0.70
     Davidson diagonalization with overlap
     ethr =  2.32E-03,  avg # of iterations =  2.6

     total cpu time spent up to now is        1.6 secs

     total energy              =     -72.46261981 Ry
     estimated scf accuracy    <       0.00374557 Ry

     iteration #  3     ecut=    40.00 Ry     beta= 0.70
     Davidson diagonalization with overlap
     c_bands:  1 eigenvalues not converged
     ethr =  2.34E-05,  avg # of iterations =  7.2

     total cpu time spent up to now is        2.2 secs

     total energy              =     -72.46307816 Ry
     estimated scf accuracy    <       0.00026598 Ry

     iteration #  4     ecut=    40.00 Ry     beta= 0.70
     Davidson diagonalization with overlap
     ethr =  1.66E-06,  avg # of iterations =  4.1

     total cpu time spent up to now is        2.6 secs

     total energy              =     -72.46310190 Ry
     estimated scf accuracy    <       0.00000420 Ry

     iteration #  5     ecut=    40.00 Ry     beta= 0.70
     Davidson diagonalization with overlap
     ethr =  2.63E-08,  avg # of iterations =  2.9

     total cpu time spent up to now is        3.0 secs

     total energy              =     -72.46310395 Ry
     estimated scf accuracy    <       0.00000029 Ry

     iteration #  6     ecut=    40.00 Ry     beta= 0.70
     Davidson diagonalization with overlap
     ethr =  1.78E-09,  avg # of iterations =  2.1

     total cpu time spent up to now is        3.4 secs

     End of self-consistent calculation

          k = 0.0000 0.0000 0.0000 (  1193 PWs)   bands (ev):

   -14.1529 -14.0668  -2.6970  -1.8294   2.3528   2.3528   2.3571   2.3571
     8.6153  13.6477  13.6478  13.6615

          k = 0.0000 0.0000 0.0790 (  1212 PWs)   bands (ev):

   -14.1405 -14.0797  -2.5828  -1.9715   2.3531   2.3531   2.3558   2.3558
     9.0683  11.8824  13.6497  13.6504

          k = 0.0000 0.0000-0.1581 (  1194 PWs)   bands (ev):

   -14.1102 -14.1102  -2.2905  -2.2905   2.3544   2.3544   2.3544   2.3544
    10.2870  10.2870  13.6543  13.6543

          k = 0.0000 0.0962 0.0000 (  1206 PWs)   bands (ev):

   -13.9885 -13.9033  -2.4977  -1.6368   1.7009   1.7072   2.0107   2.0163
     8.8253  13.6980  13.7291  14.3461

          k = 0.0000 0.0962 0.0790 (  1197 PWs)   bands (ev):

   -13.9762 -13.9161  -2.3843  -1.7776   1.7017   1.7066   2.0120   2.0157
     9.2757  12.0719  13.7099  13.7266

          k = 0.0000 0.0962-0.1581 (  1182 PWs)   bands (ev):

   -13.9463 -13.9463  -2.0943  -2.0943   1.7043   1.7043   2.0141   2.0141
    10.4872  10.4872  13.7196  13.7198

          k = 0.0000 0.1925 0.0000 (  1182 PWs)   bands (ev):

   -13.4969 -13.4148  -1.9044  -1.0648   0.0591   0.0736   1.2133   1.2209
     9.4561  13.5580  13.6173  13.6860

          k = 0.0000 0.1925 0.0790 (  1184 PWs)   bands (ev):

   -13.4850 -13.4270  -1.7934  -1.2017   0.0612   0.0710   1.2140   1.2198
     9.8977  12.6246  13.6499  13.6818

          k = 0.0000 0.1925-0.1581 (  1194 PWs)   bands (ev):

   -13.4563 -13.4563  -1.5104  -1.5104   0.0657   0.0657   1.2170   1.2170
    11.0839  11.0839  13.6658  13.6658

          k = 0.0000 0.2887 0.0000 (  1186 PWs)   bands (ev):

   -12.6840 -12.6068  -2.0447  -2.0215  -0.9342  -0.1343   0.3280   0.3383
    10.5046  12.4747  12.6935  13.3205

          k = 0.0000 0.2887 0.0790 (  1192 PWs)   bands (ev):

   -12.6729 -12.6183  -2.0416  -2.0250  -0.8280  -0.2642   0.3294   0.3369
    10.9213  12.5056  12.6343  13.2835

          k = 0.0000 0.2887-0.1581 (  1174 PWs)   bands (ev):

   -12.6457 -12.6457  -2.0334  -2.0334  -0.5576  -0.5576   0.3337   0.3337
    11.9838  11.9840  12.7011  12.7016

          k = 0.0000 0.3849 0.0000 (  1192 PWs)   bands (ev):

   -11.5615 -11.4910  -4.2550  -4.2214  -0.4081  -0.3967   0.3686   1.0985
    10.0939  10.4520  11.9522  12.9834

          k = 0.0000 0.3849 0.0790 (  1184 PWs)   bands (ev):

   -11.5513 -11.5015  -4.2499  -4.2261  -0.4063  -0.3987   0.4665   0.9813
    10.1320  10.3878  12.3608  12.9930

          k = 0.0000 0.3849-0.1581 (  1182 PWs)   bands (ev):

   -11.5266 -11.5266  -4.2380  -4.2380  -0.4024  -0.4024   0.7144   0.7144
    10.2482  10.2482  12.9705  12.9705

          k = 0.0000 0.4811 0.0000 (  1196 PWs)   bands (ev):

   -10.1587 -10.0968  -6.3632  -6.3207  -0.8822  -0.8715   1.8640   2.4445
     7.9163   8.3484  12.7279  12.8368

          k = 0.0000 0.4811 0.0790 (  1193 PWs)   bands (ev):

   -10.1497 -10.1060  -6.3570  -6.3268  -0.8808  -0.8728   1.9445   2.3545
     7.9657   8.2717  12.7453  12.8229

          k = 0.0000 0.4811-0.1581 (  1188 PWs)   bands (ev):

   -10.1280 -10.1280  -6.3419  -6.3419  -0.8767  -0.8767   2.1448   2.1448
     8.1056   8.1056  12.7853  12.7853

          k = 0.0000-0.5774 0.0000 (  1188 PWs)   bands (ev):

    -8.8589  -8.8291  -7.8803  -7.8568  -1.0450  -1.0343   2.8499   3.1292
     6.8654   7.2195  12.6445  12.7654

          k = 0.0000-0.5774 0.0790 (  1190 PWs)   bands (ev):

    -8.8543  -8.8333  -7.8772  -7.8606  -1.0434  -1.0358   2.8948   3.0934
     6.8943   7.1452  12.6619  12.7475

          k = 0.0000-0.5774-0.1581 (  1204 PWs)   bands (ev):

    -8.8437  -8.8437  -7.8693  -7.8693  -1.0398  -1.0398   2.9983   2.9983
     6.9972   6.9972  12.7042  12.7042

          k = 0.0833 0.1443 0.0000 (  1195 PWs)   bands (ev):

   -13.6605 -13.5774  -2.1013  -1.2544   0.6686   0.6753   1.3282   1.3333
     9.2464  13.3941  13.9692  14.0249

          k = 0.0833 0.1443 0.0790 (  1192 PWs)   bands (ev):

   -13.6485 -13.5898  -1.9895  -1.3927   0.6695   0.6743   1.3291   1.3328
     9.6912  12.4489  13.9948  14.0204

          k = 0.0833 0.1443-0.1581 (  1192 PWs)   bands (ev):

   -13.6193 -13.6193  -1.7040  -1.7040   0.6719   0.6719   1.3307   1.3307
    10.8873  10.8873  14.0095  14.0096

          k = 0.0833 0.2406 0.0000 (  1191 PWs)   bands (ev):

   -13.0082 -12.9291  -1.3186  -1.0451  -1.0297  -0.5017   0.3226   0.3321
    10.0882  13.3679  13.5005  14.0921

          k = 0.0833 0.2406 0.0790 (  1192 PWs)   bands (ev):

   -12.9968 -12.9409  -1.2103  -1.0429  -1.0319  -0.6347   0.3239   0.3305
    10.5198  13.1327  13.4003  13.5566

          k = 0.0833 0.2406-0.1581 (  1192 PWs)   bands (ev):

   -12.9691 -12.9691  -1.0375  -1.0375  -0.9345  -0.9345   0.3272   0.3272
    11.6764  11.6764  13.4558  13.4559

          k = 0.0833 0.3368 0.0000 (  1189 PWs)   bands (ev):

   -12.0404 -11.9671  -3.1259  -3.0987  -0.5676  -0.5550  -0.1767   0.5875
    11.1630  11.3435  11.4245  13.8407

          k = 0.0833 0.3368 0.0790 (  1187 PWs)   bands (ev):

   -12.0299 -11.9780  -3.1218  -3.1026  -0.5659  -0.5569  -0.0748   0.4641
    11.1743  11.3738  11.7893  13.8183

          k = 0.0833 0.3368-0.1581 (  1184 PWs)   bands (ev):

   -12.0041 -12.0041  -3.1121  -3.1121  -0.5615  -0.5615   0.1840   0.1840
    11.2686  11.2686  12.8849  12.8849

          k = 0.0833 0.4330 0.0000 (  1189 PWs)   bands (ev):

   -10.7752 -10.7093  -5.2567  -5.2192  -1.2046  -1.1901   1.2508   1.9180
     8.8924   9.2688  12.9790  13.5577

          k = 0.0833 0.4330 0.0790 (  1189 PWs)   bands (ev):

   -10.7657 -10.7192  -5.2512  -5.2248  -1.2024  -1.1922   1.3413   1.8121
     8.9382   9.2053  13.3227  13.5745

          k = 0.0833 0.4330-0.1581 (  1186 PWs)   bands (ev):

   -10.7426 -10.7426  -5.2380  -5.2380  -1.1973  -1.1973   1.5691   1.5691
     9.0628   9.0628  13.5828  13.5828

          k = 0.0833 0.5292 0.0000 (  1191 PWs)   bands (ev):

    -9.2821  -9.2283  -7.2095  -7.1666  -1.5339  -1.5187   2.6755   3.0995
     7.1307   7.5001  13.3765  13.5105

          k = 0.0833 0.5292 0.0790 (  1184 PWs)   bands (ev):

    -9.2743  -9.2362  -7.2033  -7.1729  -1.5316  -1.5208   2.7380   3.0381
     7.1680   7.4300  13.3959  13.4908

          k = 0.0833 0.5292-0.1581 (  1188 PWs)   bands (ev):

    -9.2554  -9.2554  -7.1881  -7.1881  -1.5262  -1.5262   2.8883   2.8883
     7.2827   7.2827  13.4428  13.4429

          k = 0.1667 0.2887 0.0000 (  1185 PWs)   bands (ev):

   -12.2011 -12.1268  -2.3672  -2.3547  -1.0509  -1.0416  -0.3607   0.4144
    11.1388  11.6528  11.8239  14.8755

          k = 0.1667 0.2887 0.0790 (  1190 PWs)   bands (ev):

   -12.1904 -12.1379  -2.3653  -2.3564  -1.0496  -1.0430  -0.2576   0.2888
    11.5501  11.6775  11.7996  14.0552

          k = 0.1667 0.2887-0.1581 (  1190 PWs)   bands (ev):

   -12.1644 -12.1644  -2.3610  -2.3610  -1.0463  -1.0463   0.0046   0.0046
    11.7374  11.7374  12.6531  12.6531

          k = 0.1667 0.3849 0.0000 (  1191 PWs)   bands (ev):

   -11.0895 -11.0217  -4.1034  -4.0771  -2.1136  -2.0963   0.9271   1.6320
     9.6714   9.9107  12.5929  15.4501

          k = 0.1667 0.3849 0.0790 (  1187 PWs)   bands (ev):

   -11.0797 -11.0318  -4.0995  -4.0810  -2.1110  -2.0988   1.0219   1.5191
     9.7043   9.8742  12.9682  15.1063

          k = 0.1667 0.3849-0.1581 (  1194 PWs)   bands (ev):

   -11.0559 -11.0559  -4.0903  -4.0903  -2.1050  -2.1050   1.2615   1.2615
     9.7875   9.7875  13.9493  13.9493

          k = 0.1667 0.4811 0.0000 (  1179 PWs)   bands (ev):

    -9.7064  -9.6473  -6.0269  -5.9887  -2.6897  -2.6677   2.4210   2.9885
     7.7229   8.0362  14.4137  15.2388

          k = 0.1667 0.4811 0.0790 (  1186 PWs)   bands (ev):

    -9.6978  -9.6561  -6.0214  -5.9945  -2.6866  -2.6711   2.4995   2.9005
     7.7622   7.9845  14.7013  15.2553

          k = 0.1667 0.4811-0.1581 (  1182 PWs)   bands (ev):

    -9.6771  -9.6771  -6.0079  -6.0079  -2.6788  -2.6788   2.6952   2.6952
     7.8677   7.8677  15.2310  15.2310

          k = 0.1667 0.5774 0.0000 (  1176 PWs)   bands (ev):

    -8.4386  -8.4103  -7.4726  -7.4519  -2.8744  -2.8512   3.4494   3.7234
     6.7259   6.9175  15.1395  15.3630

          k = 0.1667 0.5774 0.0790 (  1174 PWs)   bands (ev):

    -8.4342  -8.4142  -7.4699  -7.4552  -2.8711  -2.8545   3.4942   3.6888
     6.7372   6.8745  15.1666  15.3233

          k = 0.1667 0.5774-0.1581 (  1176 PWs)   bands (ev):

    -8.4241  -8.4241  -7.4629  -7.4629  -2.8629  -2.8629   3.5963   3.5963
     6.7901   6.7901  15.2370  15.2370

          k = 0.2500 0.4330 0.0000 (  1183 PWs)   bands (ev):

    -9.8558  -9.7955  -5.1241  -5.1054  -3.6108  -3.5963   2.3164   2.9278
     8.0644   8.2907  14.2156  16.1166

          k = 0.2500 0.4330 0.0790 (  1183 PWs)   bands (ev):

    -9.8470  -9.8045  -5.1214  -5.1081  -3.6088  -3.5985   2.3996   2.8316
     8.0975   8.2573  14.4809  15.7842

          k = 0.2500 0.4330-0.1581 (  1192 PWs)   bands (ev):

    -9.8259  -9.8259  -5.1147  -5.1147  -3.6038  -3.6038   2.6090   2.6090
     8.1770   8.1770  15.1156  15.1156

          k = 0.2500 0.5292 0.0000 (  1169 PWs)   bands (ev):

    -8.4205  -8.3723  -6.5613  -6.5291  -4.3227  -4.2980   3.7912   4.2140
     6.5569   6.7701  16.1097  16.1548

          k = 0.2500 0.5292 0.0790 (  1171 PWs)   bands (ev):

    -8.4136  -8.3794  -6.5565  -6.5338  -4.3192  -4.3017   3.8525   4.1521
     6.5833   6.7345  15.8270  15.9383

          k = 0.2500 0.5292-0.1581 (  1180 PWs)   bands (ev):

    -8.3965  -8.3965  -6.5453  -6.5453  -4.3106  -4.3106   4.0020   4.0020
     6.6537   6.6537  15.7236  15.7236

          k = 0.3333 0.5774 0.0000 (  1173 PWs)   bands (ev):

    -7.1960  -7.1711  -7.1711  -7.1475  -5.2315  -5.2315   5.1083   5.3572
     5.3572   5.6280  15.9309  15.9309

          k = 0.3333 0.5774 0.0790 (  1173 PWs)   bands (ev):

    -7.1889  -7.1710  -7.1710  -7.1547  -5.2316  -5.2316   5.1800   5.3599
     5.3599   5.5468  15.6853  15.6853

          k = 0.3333 0.5774-0.1581 (  1182 PWs)   bands (ev):

    -7.1719  -7.1719  -7.1710  -7.1710  -5.2317  -5.2317   5.3583   5.3583
     5.3621   5.3621  15.5038  15.5038

     the Fermi energy is     5.3607 ev

!    total energy              =     -72.46310403 Ry
     total all-electron energy =      -303.579215 Ry
     estimated scf accuracy    <       0.00000004 Ry
     smearing contrib. (-TS)   =      -0.00052278 Ry
     internal energy E=F+TS    =     -72.46258125 Ry

     The total energy is F=E-TS. E is the sum of the following terms:
     one-electron contribution =     -22.93501564 Ry
     hartree contribution      =      18.85518496 Ry
     xc contribution           =     -18.30992148 Ry
     ewald contribution        =     -26.51210758 Ry
     one-center paw contrib.   =     -23.56072151 Ry

     convergence has been achieved in   6 iterations

     Forces acting on atoms (cartesian axes, Ry/au):

     atom    1 type  1   force =     0.00000000   -0.00000000    0.00000000
     atom    2 type  1   force =     0.00000000   -0.00000000    0.00000000
     atom    3 type  1   force =    -0.00000000   -0.00000000    0.00000000
     atom    4 type  1   force =     0.00000000    0.00000000    0.00000000

     Total force =     0.000000     Total SCF correction =     0.000000


     Computing stress (Cartesian axis) and pressure

          total   stress  (Ry/bohr**3)                   (kbar)     P=      -29.48
  -0.00026511   0.00000000   0.00000000          -39.00        0.00        0.00
   0.00000000  -0.00026511   0.00000000            0.00      -39.00        0.00
   0.00000000   0.00000000  -0.00007103            0.00        0.00      -10.45


     BFGS Geometry Optimization
     Energy error            =      0.0E+00 Ry
     Gradient error          =      2.1E-25 Ry/Bohr
     Cell gradient error     =      3.9E+01 kbar

     number of scf cycles    =   1
     number of bfgs steps    =   0

     enthalpy           new  =     -72.4631040289 Ry

     new trust radius        =       0.0220855480 bohr
ibrav =      4
 celldm(1) =      4.63160336
 celldm(3) =      3.17805435
Input lattice vectors:
     0.99337232     0.00000000     0.00000000
    -0.49668616     0.86028567     0.00000000
     0.00000000     0.00000000     3.15699123
New lattice vectors in INITIAL alat:
     0.99337232     0.00000000     0.00000000
    -0.49668616     0.86028567     0.00000000
     0.00000000     0.00000000     3.15699123
New lattice vectors in NEW alat (for information only):
     1.00000000     0.00000000     0.00000000
    -0.50000000     0.86602540     0.00000000
     0.00000000     0.00000000     3.17805435
Discrepancy in bohr =     0.000000    0.000000    0.000000
     new conv_thr            =       0.0000001000 Ry

     new unit-cell volume =    273.45510 a.u.^3 (    40.52187 Ang^3 )
     density =      1.96879 g/cm^3

CELL_PARAMETERS (alat=  4.66250493)
   0.993372324   0.000000000   0.000000000
  -0.496686162   0.860285668   0.000000000
   0.000000000   0.000000000   3.156991233

ATOMIC_POSITIONS (crystal)
C               -0.0000000000       -0.0000000000        0.2500000000
C               -0.0000000000       -0.0000000000        0.7500000000
C                0.3333333330        0.6666666660        0.2500000000
C                0.6666666660        0.3333333330        0.7500000000



     Writing config-only to output data dir ./temp/graphite.save/ :
     XML data file
     NEW-OLD atomic charge density approx. for the potential

     Check: negative core charge=   -0.000011

     total cpu time spent up to now is        3.8 secs

     Self-consistent Calculation

     iteration #  1     ecut=    40.00 Ry     beta= 0.70
     Davidson diagonalization with overlap
     ethr =  1.00E-06,  avg # of iterations =  3.7

     total cpu time spent up to now is        4.3 secs

     total energy              =     -72.46316214 Ry
     estimated scf accuracy    <       0.00024095 Ry

     iteration #  2     ecut=    40.00 Ry     beta= 0.70
     Davidson diagonalization with overlap
     ethr =  1.51E-06,  avg # of iterations =  2.6

     total cpu time spent up to now is        4.7 secs

     total energy              =     -72.46320611 Ry
     estimated scf accuracy    <       0.00000157 Ry

     iteration #  3     ecut=    40.00 Ry     beta= 0.70
     Davidson diagonalization with overlap
     ethr =  9.82E-09,  avg # of iterations =  2.3

     total cpu time spent up to now is        5.1 secs

     End of self-consistent calculation

          k = 0.0000 0.0000 0.0000 (  1193 PWs)   bands (ev):

   -14.1579 -14.0714  -2.6774  -1.8097   2.5164   2.5164   2.5205   2.5205
     8.7060  12.9567  13.9352  13.9352

          k = 0.0000 0.0000 0.0792 (  1212 PWs)   bands (ev):

   -14.1455 -14.0844  -2.5631  -1.9517   2.5167   2.5167   2.5194   2.5194
     9.1606  11.9884  13.9371  13.9377

          k = 0.0000 0.0000-0.1584 (  1194 PWs)   bands (ev):

   -14.1151 -14.1151  -2.2707  -2.2707   2.5180   2.5180   2.5180   2.5180
    10.3843  10.3843  13.9416  13.9416

          k = 0.0000 0.0969 0.0000 (  1206 PWs)   bands (ev):

   -13.9915 -13.9061  -2.4750  -1.6139   1.8595   1.8658   2.1672   2.1726
     8.9187  13.1462  13.9884  14.0213

          k = 0.0000 0.0969 0.0792 (  1197 PWs)   bands (ev):

   -13.9792 -13.9189  -2.3614  -1.7546   1.8603   1.8651   2.1684   2.1720
     9.3706  12.1812  14.0013  14.0188

          k = 0.0000 0.0969-0.1584 (  1182 PWs)   bands (ev):

   -13.9492 -13.9492  -2.0713  -2.0713   1.8629   1.8629   2.1704   2.1704
    10.5873  10.5873  14.0117  14.0118

          k = 0.0000 0.1937 0.0000 (  1182 PWs)   bands (ev):

   -13.4941 -13.4118  -1.8721  -1.0321   0.2030   0.2174   1.3538   1.3613
     9.5576  13.6878  13.9250  13.9977

          k = 0.0000 0.1937 0.0792 (  1184 PWs)   bands (ev):

   -13.4823 -13.4241  -1.7610  -1.1690   0.2051   0.2148   1.3546   1.3602
    10.0009  12.7453  13.9591  13.9932

          k = 0.0000 0.1937-0.1584 (  1194 PWs)   bands (ev):

   -13.4534 -13.4534  -1.4778  -1.4778   0.2096   0.2096   1.3575   1.3575
    11.1929  11.1929  13.9773  13.9773

          k = 0.0000 0.2906 0.0000 (  1186 PWs)   bands (ev):

   -12.6715 -12.5941  -1.9223  -1.8993  -0.8862  -0.0855   0.4522   0.4622
    10.6201  12.7595  12.9779  13.6498

          k = 0.0000 0.2906 0.0792 (  1192 PWs)   bands (ev):

   -12.6604 -12.6057  -1.9192  -1.9028  -0.7799  -0.2155   0.4536   0.4608
    11.0396  12.7827  12.9131  13.5784

          k = 0.0000 0.2906-0.1584 (  1174 PWs)   bands (ev):

   -12.6332 -12.6332  -1.9111  -1.9111  -0.5091  -0.5091   0.4577   0.4577
    12.1231  12.1233  12.9777  12.9781

          k = 0.0000 0.3875 0.0000 (  1192 PWs)   bands (ev):

   -11.5351 -11.4645  -4.1574  -4.1240  -0.2970  -0.2859   0.4384   1.1697
    10.3271  10.6888  12.0897  13.3263

          k = 0.0000 0.3875 0.0792 (  1184 PWs)   bands (ev):

   -11.5249 -11.4750  -4.1524  -4.1287  -0.2952  -0.2878   0.5365   1.0523
    10.3647  10.6232  12.5077  13.3335

          k = 0.0000 0.3875-0.1584 (  1182 PWs)   bands (ev):

   -11.5001 -11.5001  -4.1405  -4.1405  -0.2914  -0.2914   0.7849   0.7849
    10.4816  10.4816  13.2769  13.2769

          k = 0.0000 0.4843 0.0000 (  1196 PWs)   bands (ev):

   -10.1125 -10.0506  -6.2928  -6.2504  -0.7793  -0.7688   1.9605   2.5428
     8.1025   8.5395  13.0757  13.1825

          k = 0.0000 0.4843 0.0792 (  1193 PWs)   bands (ev):

   -10.1036 -10.0598  -6.2866  -6.2565  -0.7779  -0.7701   2.0412   2.4525
     8.1525   8.4619  13.0941  13.1708

          k = 0.0000 0.4843-0.1584 (  1188 PWs)   bands (ev):

   -10.0818 -10.0818  -6.2716  -6.2716  -0.7738  -0.7738   2.2421   2.2421
     8.2938   8.2938  13.1345  13.1345

          k = 0.0000-0.5812 0.0000 (  1188 PWs)   bands (ev):

    -8.7718  -8.7420  -7.8534  -7.8300  -0.9449  -0.9343   2.9658   3.2451
     7.0262   7.3856  12.9966  13.1189

          k = 0.0000-0.5812 0.0792 (  1190 PWs)   bands (ev):

    -8.7672  -8.7461  -7.8503  -7.8339  -0.9433  -0.9358   3.0107   3.2092
     7.0557   7.3103  13.0142  13.1007

          k = 0.0000-0.5812-0.1584 (  1204 PWs)   bands (ev):

    -8.7565  -8.7565  -7.8425  -7.8425  -0.9397  -0.9397   3.1142   3.1142
     7.1604   7.1604  13.0569  13.0569

          k = 0.0839 0.1453 0.0000 (  1195 PWs)   bands (ev):

   -13.6597 -13.5763  -2.0722  -1.2250   0.8199   0.8266   1.4707   1.4756
     9.3451  13.5182  14.2617  14.3221

          k = 0.0839 0.1453 0.0792 (  1192 PWs)   bands (ev):

   -13.6476 -13.5887  -1.9603  -1.3632   0.8209   0.8256   1.4716   1.4751
     9.7917  12.5647  14.2894  14.3175

          k = 0.0839 0.1453-0.1584 (  1192 PWs)   bands (ev):

   -13.6184 -13.6184  -1.6747  -1.6747   0.8232   0.8232   1.4732   1.4732
    10.9933  10.9933  14.3061  14.3061

          k = 0.0839 0.2422 0.0000 (  1191 PWs)   bands (ev):

   -12.9997 -12.9204  -1.2769  -0.9095  -0.8942  -0.4594   0.4471   0.4564
    10.1982  13.6752  13.7982  14.2984

          k = 0.0839 0.2422 0.0792 (  1192 PWs)   bands (ev):

   -12.9883 -12.9322  -1.1685  -0.9073  -0.8964  -0.5923   0.4483   0.4548
    10.6317  13.2774  13.7098  13.8553

          k = 0.0839 0.2422-0.1584 (  1192 PWs)   bands (ev):

   -12.9604 -12.9604  -0.9031  -0.9031  -0.8912  -0.8912   0.4516   0.4516
    11.7949  11.7949  13.7668  13.7668

          k = 0.0839 0.3390 0.0000 (  1189 PWs)   bands (ev):

   -12.0201 -11.9467  -3.0134  -2.9864  -0.4571  -0.4446  -0.1161   0.6492
    11.4222  11.4706  11.6858  14.1810

          k = 0.0839 0.3390 0.0792 (  1187 PWs)   bands (ev):

   -12.0096 -11.9576  -3.0094  -2.9904  -0.4553  -0.4465  -0.0140   0.5256
    11.4250  11.6313  11.9308  14.1314

          k = 0.0839 0.3390-0.1584 (  1184 PWs)   bands (ev):

   -11.9838 -11.9838  -2.9998  -2.9998  -0.4510  -0.4510   0.2452   0.2452
    11.5251  11.5251  13.0299  13.0300

          k = 0.0839 0.4359 0.0000 (  1189 PWs)   bands (ev):

   -10.7385 -10.6726  -5.1702  -5.1328  -1.1037  -1.0894   1.3360   2.0048
     9.1025   9.4829  13.1346  13.9091

          k = 0.0839 0.4359 0.0792 (  1189 PWs)   bands (ev):

   -10.7290 -10.6824  -5.1647  -5.1384  -1.1015  -1.0914   1.4266   1.8986
     9.1486   9.4185  13.5022  13.9234

          k = 0.0839 0.4359-0.1584 (  1186 PWs)   bands (ev):

   -10.7059 -10.7059  -5.1516  -5.1516  -1.0964  -1.0964   1.6550   1.6550
     9.2743   9.2743  13.9227  13.9227

          k = 0.0839 0.5328 0.0000 (  1191 PWs)   bands (ev):

    -9.2190  -9.1648  -7.1550  -7.1117  -1.4378  -1.4229   2.7872   3.2126
     7.3010   7.6757  13.7332  13.8689

          k = 0.0839 0.5328 0.0792 (  1184 PWs)   bands (ev):

    -9.2112  -9.1728  -7.1487  -7.1180  -1.4356  -1.4250   2.8499   3.1510
     7.3390   7.6046  13.7529  13.8489

          k = 0.0839 0.5328-0.1584 (  1188 PWs)   bands (ev):

    -9.1921  -9.1921  -7.1334  -7.1334  -1.4303  -1.4303   3.0006   3.0006
     7.4554   7.4554  13.8005  13.8005

          k = 0.1678 0.2906 0.0000 (  1185 PWs)   bands (ev):

   -12.1828 -12.1084  -2.2380  -2.2256  -0.9522  -0.9431  -0.3032   0.4728
    11.2633  11.9267  12.0986  15.0320

          k = 0.1678 0.2906 0.0792 (  1190 PWs)   bands (ev):

   -12.1721 -12.1195  -2.2361  -2.2273  -0.9510  -0.9444  -0.2000   0.3472
    11.6772  11.9516  12.0738  14.2025

          k = 0.1678 0.2906-0.1584 (  1190 PWs)   bands (ev):

   -12.1460 -12.1460  -2.2318  -2.2318  -0.9477  -0.9477   0.0626   0.0626
    12.0117  12.0117  12.7869  12.7869

          k = 0.1678 0.3875 0.0000 (  1191 PWs)   bands (ev):

   -11.0572 -10.9894  -3.9947  -3.9685  -2.0282  -2.0108   1.0063   1.7127
     9.9042  10.1451  12.7377  15.8002

          k = 0.1678 0.3875 0.0792 (  1187 PWs)   bands (ev):

   -11.0475 -10.9995  -3.9908  -3.9723  -2.0256  -2.0134   1.1014   1.5996
     9.9372  10.1083  13.1161  15.2925

          k = 0.1678 0.3875-0.1584 (  1194 PWs)   bands (ev):

   -11.0236 -11.0236  -3.9816  -3.9816  -2.0196  -2.0196   1.3414   1.3414
    10.0209  10.0209  14.1070  14.1070

          k = 0.1678 0.4843 0.0000 (  1179 PWs)   bands (ev):

    -9.6546  -9.5954  -5.9469  -5.9086  -2.6084  -2.5865   2.5268   3.0961
     7.9144   8.2311  14.5872  15.6064

          k = 0.1678 0.4843 0.0792 (  1186 PWs)   bands (ev):

    -9.6460  -9.6042  -5.9414  -5.9144  -2.6053  -2.5898   2.6055   3.0078
     7.9542   8.1789  14.8812  15.6190

          k = 0.1678 0.4843-0.1584 (  1182 PWs)   bands (ev):

    -9.6253  -9.6253  -5.9279  -5.9279  -2.5975  -2.5975   2.8018   2.8018
     8.0608   8.0608  15.5110  15.5110

          k = 0.1678 0.5812 0.0000 (  1176 PWs)   bands (ev):

    -8.3490  -8.3208  -7.4335  -7.4127  -2.7944  -2.7714   3.5751   3.8491
     6.8927   7.0891  15.5099  15.7412

          k = 0.1678 0.5812 0.0792 (  1174 PWs)   bands (ev):

    -8.3447  -8.3247  -7.4308  -7.4161  -2.7911  -2.7747   3.6199   3.8145
     6.9047   7.0454  15.5372  15.6986

          k = 0.1678 0.5812-0.1584 (  1176 PWs)   bands (ev):

    -8.3345  -8.3345  -7.4238  -7.4238  -2.7830  -2.7830   3.7220   3.7220
     6.9592   6.9592  15.6083  15.6083

          k = 0.2517 0.4359 0.0000 (  1183 PWs)   bands (ev):

    -9.8071  -9.7467  -5.0138  -4.9952  -3.5571  -3.5427   2.4198   3.0330
     8.2690   8.4957  14.3846  16.3112

          k = 0.2517 0.4359 0.0792 (  1183 PWs)   bands (ev):

    -9.7983  -9.7557  -5.0111  -4.9979  -3.5551  -3.5449   2.5032   2.9365
     8.3022   8.4623  14.6534  15.9776

          k = 0.2517 0.4359-0.1584 (  1192 PWs)   bands (ev):

    -9.7772  -9.7772  -5.0045  -5.0045  -3.5502  -3.5502   2.7133   2.7133
     8.3819   8.3819  15.2983  15.2983

          k = 0.2517 0.5328 0.0000 (  1169 PWs)   bands (ev):

    -8.3470  -8.2985  -6.4784  -6.4456  -4.2747  -4.2495   3.9215   4.3457
     6.7320   6.9463  16.3133  16.3490

          k = 0.2517 0.5328 0.0792 (  1171 PWs)   bands (ev):

    -8.3400  -8.3057  -6.4736  -6.4504  -4.2711  -4.2533   3.9830   4.2836
     6.7587   6.9105  16.0263  16.1375

          k = 0.2517 0.5328-0.1584 (  1180 PWs)   bands (ev):

    -8.3229  -8.3229  -6.4621  -6.4621  -4.2623  -4.2623   4.1329   4.1329
     6.8295   6.8295  15.9237  15.9237

          k = 0.3356 0.5812 0.0000 (  1173 PWs)   bands (ev):

    -7.0989  -7.0740  -7.0740  -7.0506  -5.2234  -5.2234   5.2632   5.5127
     5.5127   5.7829  16.1135  16.1135

          k = 0.3356 0.5812 0.0792 (  1173 PWs)   bands (ev):

    -7.0919  -7.0739  -7.0739  -7.0578  -5.2235  -5.2235   5.3348   5.5153
     5.5153   5.7017  15.8731  15.8731

          k = 0.3356 0.5812-0.1584 (  1182 PWs)   bands (ev):

    -7.0749  -7.0749  -7.0738  -7.0738  -5.2237  -5.2237   5.5132   5.5132
     5.5175   5.5175  15.6934  15.6934

     the Fermi energy is     5.5159 ev

!    total energy              =     -72.46320635 Ry
     total all-electron energy =      -303.579318 Ry
     estimated scf accuracy    <       0.00000010 Ry
     smearing contrib. (-TS)   =      -0.00052275 Ry
     internal energy E=F+TS    =     -72.46268360 Ry

     The total energy is F=E-TS. E is the sum of the following terms:
     one-electron contribution =     -23.14340338 Ry
     hartree contribution      =      19.04592149 Ry
     xc contribution           =     -18.37116314 Ry
     ewald contribution        =     -26.43086279 Ry
     one-center paw contrib.   =     -23.56317578 Ry

     convergence has been achieved in   3 iterations

     Forces acting on atoms (cartesian axes, Ry/au):

     atom    1 type  1   force =    -0.00000000   -0.00000000    0.00000000
     atom    2 type  1   force =     0.00000000    0.00000000    0.00000000
     atom    3 type  1   force =     0.00000000    0.00000000    0.00000000
     atom    4 type  1   force =    -0.00000000   -0.00000000    0.00000000

     Total force =     0.000000     Total SCF correction =     0.000000


     Computing stress (Cartesian axis) and pressure

          total   stress  (Ry/bohr**3)                   (kbar)     P=       19.53
   0.00023331   0.00000000  -0.00000000           34.32        0.00       -0.00
  -0.00000000   0.00023331  -0.00000000           -0.00       34.32       -0.00
   0.00000000  -0.00000000  -0.00006829            0.00       -0.00      -10.05

     Energy error            =      1.0E-04 Ry
     Gradient error          =      1.4E-25 Ry/Bohr
     Cell gradient error     =      3.4E+01 kbar

     number of scf cycles    =   2
     number of bfgs steps    =   1

     enthalpy           old  =     -72.4631040289 Ry
     enthalpy           new  =     -72.4632063476 Ry

     CASE: enthalpy          _new < enthalpy          _old

     new trust radius        =       0.0098936245 bohr
ibrav =      4
 celldm(1) =      4.64545859
 celldm(3) =      3.16542943
Input lattice vectors:
     0.99634395     0.00000000     0.00000000
    -0.49817198     0.86285917    -0.00000000
    -0.00000000    -0.00000000     3.15385647
New lattice vectors in INITIAL alat:
     0.99634395     0.00000000     0.00000000
    -0.49817198     0.86285917     0.00000000
     0.00000000     0.00000000     3.15385647
New lattice vectors in NEW alat (for information only):
     1.00000000     0.00000000     0.00000000
    -0.50000000     0.86602540     0.00000000
     0.00000000     0.00000000     3.16542943
Discrepancy in bohr =     0.000000    0.000000    0.000000
     new conv_thr            =       0.0000000010 Ry

     new unit-cell volume =    274.82045 a.u.^3 (    40.72419 Ang^3 )
     density =      1.95901 g/cm^3

CELL_PARAMETERS (alat=  4.66250493)
   0.996343952   0.000000000   0.000000000
  -0.498171976   0.862859173   0.000000000
   0.000000000   0.000000000   3.153856465

ATOMIC_POSITIONS (crystal)
C               -0.0000000000       -0.0000000000        0.2500000000
C               -0.0000000000       -0.0000000000        0.7500000000
C                0.3333333330        0.6666666660        0.2500000000
C                0.6666666660        0.3333333330        0.7500000000



     Writing config-only to output data dir ./temp/graphite.save/ :
     XML data file
     NEW-OLD atomic charge density approx. for the potential

     Check: negative core charge=   -0.000011

     total cpu time spent up to now is        5.5 secs

     Self-consistent Calculation

     iteration #  1     ecut=    40.00 Ry     beta= 0.70
     Davidson diagonalization with overlap
     ethr =  1.00E-06,  avg # of iterations =  2.2

     total cpu time spent up to now is        5.9 secs

     total energy              =     -72.46341244 Ry
     estimated scf accuracy    <       0.00004274 Ry

     iteration #  2     ecut=    40.00 Ry     beta= 0.70
     Davidson diagonalization with overlap
     ethr =  2.67E-07,  avg # of iterations =  2.1

     total cpu time spent up to now is        6.3 secs

     total energy              =     -72.46341987 Ry
     estimated scf accuracy    <       0.00000033 Ry

     iteration #  3     ecut=    40.00 Ry     beta= 0.70
     Davidson diagonalization with overlap
     ethr =  2.07E-09,  avg # of iterations =  2.4

     total cpu time spent up to now is        6.7 secs

     total energy              =     -72.46341994 Ry
     estimated scf accuracy    <       0.00000004 Ry

     iteration #  4     ecut=    40.00 Ry     beta= 0.70
     Davidson diagonalization with overlap
     ethr =  2.36E-10,  avg # of iterations =  1.9

     total cpu time spent up to now is        7.1 secs

     total energy              =     -72.46341995 Ry
     estimated scf accuracy    <       0.00000001 Ry

     iteration #  5     ecut=    40.00 Ry     beta= 0.70
     Davidson diagonalization with overlap
     ethr =  8.09E-11,  avg # of iterations =  1.0

     total cpu time spent up to now is        7.4 secs

     End of self-consistent calculation

          k = 0.0000 0.0000 0.0000 (  1193 PWs)   bands (ev):

   -14.1396 -14.0518  -2.6737  -1.7964   2.4592   2.4592   2.4635   2.4635
     8.6884  12.9493  13.8223  13.8223

          k = 0.0000 0.0000 0.0793 (  1212 PWs)   bands (ev):

   -14.1269 -14.0649  -2.5582  -1.9402   2.4596   2.4596   2.4623   2.4623
     9.1450  11.9807  13.8242  13.8249

          k = 0.0000 0.0000-0.1585 (  1194 PWs)   bands (ev):

   -14.0961 -14.0961  -2.2628  -2.2628   2.4609   2.4609   2.4609   2.4609
    10.3731  10.3731  13.8289  13.8289

          k = 0.0000 0.0966 0.0000 (  1206 PWs)   bands (ev):

   -13.9740 -13.8873  -2.4726  -1.6021   1.8046   1.8111   2.1133   2.1188
     8.8997  13.1368  13.8743  13.9066

          k = 0.0000 0.0966 0.0793 (  1197 PWs)   bands (ev):

   -13.9615 -13.9003  -2.3579  -1.7446   1.8054   1.8104   2.1145   2.1182
     9.3537  12.1717  13.8868  13.9041

          k = 0.0000 0.0966-0.1585 (  1182 PWs)   bands (ev):

   -13.9311 -13.9311  -2.0648  -2.0648   1.8081   1.8081   2.1166   2.1166
    10.5746  10.5746  13.8969  13.8969

          k = 0.0000 0.1932 0.0000 (  1182 PWs)   bands (ev):

   -13.4792 -13.3956  -1.8740  -1.0248   0.1547   0.1694   1.3070   1.3147
     9.5347  13.6714  13.8032  13.8746

          k = 0.0000 0.1932 0.0793 (  1184 PWs)   bands (ev):

   -13.4672 -13.4081  -1.7618  -1.1634   0.1569   0.1668   1.3078   1.3136
     9.9799  12.7295  13.8370  13.8703

          k = 0.0000 0.1932-0.1585 (  1194 PWs)   bands (ev):

   -13.4379 -13.4379  -1.4757  -1.4757   0.1615   0.1615   1.3108   1.3108
    11.1756  11.1757  13.8541  13.8541

          k = 0.0000 0.2897 0.0000 (  1186 PWs)   bands (ev):

   -12.6609 -12.5823  -1.9609  -1.9374  -0.8951  -0.0857   0.4128   0.4231
    10.5905  12.6468  12.8688  13.5178

          k = 0.0000 0.2897 0.0793 (  1192 PWs)   bands (ev):

   -12.6496 -12.5941  -1.9578  -1.9410  -0.7876  -0.2172   0.4142   0.4217
    11.0111  12.6753  12.8062  13.4675

          k = 0.0000 0.2897-0.1585 (  1174 PWs)   bands (ev):

   -12.6220 -12.6220  -1.9494  -1.9494  -0.5141  -0.5141   0.4185   0.4185
    12.0898  12.0898  12.8707  12.8708

          k = 0.0000 0.3863 0.0000 (  1192 PWs)   bands (ev):

   -11.5307 -11.4590  -4.1849  -4.1508  -0.3305  -0.3191   0.4200   1.1590
    10.2368  10.6014  12.0494  13.1882

          k = 0.0000 0.3863 0.0793 (  1184 PWs)   bands (ev):

   -11.5204 -11.4697  -4.1798  -4.1556  -0.3287  -0.3210   0.5191   1.0402
    10.2751  10.5356  12.4653  13.1968

          k = 0.0000 0.3863-0.1585 (  1182 PWs)   bands (ev):

   -11.4952 -11.4952  -4.1677  -4.1677  -0.3248  -0.3248   0.7700   0.7700
    10.3932  10.3932  13.1602  13.1603

          k = 0.0000 0.4829 0.0000 (  1196 PWs)   bands (ev):

   -10.1170 -10.0540  -6.3081  -6.2649  -0.8091  -0.7983   1.9307   2.5189
     8.0334   8.4732  12.9352  13.0449

          k = 0.0000 0.4829 0.0793 (  1193 PWs)   bands (ev):

   -10.1079 -10.0634  -6.3018  -6.2711  -0.8076  -0.7996   2.0121   2.4276
     8.0836   8.3949  12.9533  13.0318

          k = 0.0000 0.4829-0.1585 (  1188 PWs)   bands (ev):

   -10.0858 -10.0858  -6.2865  -6.2865  -0.8035  -0.8035   2.2151   2.2151
     8.2257   8.2257  12.9942  12.9942

          k = 0.0000-0.5795 0.0000 (  1188 PWs)   bands (ev):

    -8.7946  -8.7643  -7.8487  -7.8249  -0.9735  -0.9626   2.9284   3.2112
     6.9697   7.3302  12.8539  12.9776

          k = 0.0000-0.5795 0.0793 (  1190 PWs)   bands (ev):

    -8.7899  -8.7685  -7.8456  -7.8288  -0.9718  -0.9641   2.9739   3.1749
     6.9990   7.2544  12.8718  12.9592

          k = 0.0000-0.5795-0.1585 (  1204 PWs)   bands (ev):

    -8.7791  -8.7791  -7.8377  -7.8377  -0.9681  -0.9681   3.0788   3.0788
     7.1036   7.1036  12.9150  12.9150

          k = 0.0836 0.1449 0.0000 (  1195 PWs)   bands (ev):

   -13.6439 -13.5592  -2.0727  -1.2162   0.7683   0.7751   1.4231   1.4281
     9.3236  13.5051  14.1468  14.2052

          k = 0.0836 0.1449 0.0793 (  1192 PWs)   bands (ev):

   -13.6317 -13.5719  -1.9596  -1.3561   0.7693   0.7742   1.4240   1.4276
     9.7720  12.5516  14.1736  14.2006

          k = 0.0836 0.1449-0.1585 (  1192 PWs)   bands (ev):

   -13.6020 -13.6020  -1.6710  -1.6710   0.7717   0.7717   1.4256   1.4256
    10.9776  10.9776  14.1894  14.1894

          k = 0.0836 0.2414 0.0000 (  1191 PWs)   bands (ev):

   -12.9874 -12.9068  -1.2829  -0.9540  -0.9384  -0.4566   0.4076   0.4172
    10.1712  13.5529  13.6844  14.2664

          k = 0.0836 0.2414 0.0793 (  1192 PWs)   bands (ev):

   -12.9758 -12.9188  -1.1735  -0.9518  -0.9406  -0.5911   0.4088   0.4155
    10.6064  13.2490  13.5861  13.7386

          k = 0.0836 0.2414-0.1585 (  1192 PWs)   bands (ev):

   -12.9475 -12.9475  -0.9464  -0.9464  -0.8944  -0.8944   0.4122   0.4122
    11.7727  11.7727  13.6433  13.6434

          k = 0.0836 0.3380 0.0000 (  1189 PWs)   bands (ev):

   -12.0131 -11.9384  -3.0476  -3.0200  -0.4903  -0.4776  -0.1305   0.6429
    11.3205  11.4354  11.5868  14.0442

          k = 0.0836 0.3380 0.0793 (  1187 PWs)   bands (ev):

   -12.0023 -11.9495  -3.0435  -3.0240  -0.4886  -0.4795  -0.0274   0.5179
    11.3284  11.5338  11.8903  14.0111

          k = 0.0836 0.3380-0.1585 (  1184 PWs)   bands (ev):

   -11.9761 -11.9761  -3.0337  -3.0337  -0.4841  -0.4841   0.2345   0.2345
    11.4265  11.4265  12.9940  12.9940

          k = 0.0836 0.4346 0.0000 (  1189 PWs)   bands (ev):

   -10.7388 -10.6717  -5.1927  -5.1546  -1.1326  -1.1179   1.3109   1.9866
     9.0226   9.4057  13.0859  13.7669

          k = 0.0836 0.4346 0.0793 (  1189 PWs)   bands (ev):

   -10.7291 -10.6817  -5.1871  -5.1603  -1.1304  -1.1201   1.4024   1.8793
     9.0690   9.3409  13.4456  13.7826

          k = 0.0836 0.4346-0.1585 (  1186 PWs)   bands (ev):

   -10.7055 -10.7055  -5.1738  -5.1738  -1.1252  -1.1252   1.6331   1.6331
     9.1957   9.1957  13.7877  13.7877

          k = 0.0836 0.5312 0.0000 (  1191 PWs)   bands (ev):

    -9.2310  -9.1761  -7.1632  -7.1192  -1.4646  -1.4492   2.7511   3.1809
     7.2397   7.6160  13.5884  13.7254

          k = 0.0836 0.5312 0.0793 (  1184 PWs)   bands (ev):

    -9.2231  -9.1842  -7.1568  -7.1257  -1.4622  -1.4514   2.8145   3.1187
     7.2776   7.5444  13.6083  13.7052

          k = 0.0836 0.5312-0.1585 (  1188 PWs)   bands (ev):

    -9.2037  -9.2037  -7.1413  -7.1413  -1.4568  -1.4568   2.9668   2.9668
     7.3943   7.3943  13.6563  13.6563

          k = 0.1673 0.2897 0.0000 (  1185 PWs)   bands (ev):

   -12.1748 -12.0992  -2.2796  -2.2669  -0.9801  -0.9707  -0.3162   0.4681
    11.2294  11.8188  11.9928  15.0000

          k = 0.1673 0.2897 0.0793 (  1190 PWs)   bands (ev):

   -12.1640 -12.1105  -2.2777  -2.2687  -0.9788  -0.9721  -0.2120   0.3410
    11.6445  11.8440  11.9678  14.1720

          k = 0.1673 0.2897-0.1585 (  1190 PWs)   bands (ev):

   -12.1375 -12.1375  -2.2733  -2.2733  -0.9754  -0.9754   0.0533   0.0533
    11.9048  11.9048  12.7568  12.7568

          k = 0.1673 0.3863 0.0000 (  1191 PWs)   bands (ev):

   -11.0555 -10.9865  -4.0271  -4.0004  -2.0501  -2.0325   0.9837   1.6976
     9.8145  10.0578  12.6940  15.6571

          k = 0.1673 0.3863 0.0793 (  1187 PWs)   bands (ev):

   -11.0455 -10.9968  -4.0232  -4.0044  -2.0475  -2.0351   1.0797   1.5832
     9.8479  10.0207  13.0730  15.2402

          k = 0.1673 0.3863-0.1585 (  1194 PWs)   bands (ev):

   -11.0213 -11.0213  -4.0138  -4.0138  -2.0414  -2.0414   1.3222   1.3222
     9.9325   9.9325  14.0640  14.0640

          k = 0.1673 0.4829 0.0000 (  1179 PWs)   bands (ev):

    -9.6616  -9.6015  -5.9665  -5.9276  -2.6285  -2.6062   2.4928   3.0679
     7.8432   8.1621  14.5295  15.4566

          k = 0.1673 0.4829 0.0793 (  1186 PWs)   bands (ev):

    -9.6529  -9.6104  -5.9609  -5.9334  -2.6254  -2.6096   2.5723   2.9787
     7.8832   8.1095  14.8220  15.4713

          k = 0.1673 0.4829-0.1585 (  1182 PWs)   bands (ev):

    -9.6318  -9.6318  -5.9471  -5.9471  -2.6175  -2.6175   2.7706   2.7706
     7.9905   7.9905  15.4109  15.4109

          k = 0.1673 0.5795 0.0000 (  1176 PWs)   bands (ev):

    -8.3729  -8.3442  -7.4343  -7.4132  -2.8140  -2.7905   3.5333   3.8107
     6.8341   7.0300  15.3586  15.5891

          k = 0.1673 0.5795 0.0793 (  1174 PWs)   bands (ev):

    -8.3685  -8.3481  -7.4316  -7.4166  -2.8106  -2.7939   3.5787   3.7758
     6.8457   6.9861  15.3861  15.5472

          k = 0.1673 0.5795-0.1585 (  1176 PWs)   bands (ev):

    -8.3582  -8.3582  -7.4245  -7.4245  -2.8023  -2.8023   3.6822   3.6822
     6.8998   6.8998  15.4576  15.4576

          k = 0.2509 0.4346 0.0000 (  1183 PWs)   bands (ev):

    -9.8127  -9.7513  -5.0470  -5.0280  -3.5647  -3.5500   2.3867   3.0062
     8.1921   8.4216  14.3290  16.2495

          k = 0.2509 0.4346 0.0793 (  1183 PWs)   bands (ev):

    -9.8038  -9.7605  -5.0442  -5.0307  -3.5626  -3.5522   2.4710   2.9087
     8.2256   8.3877  14.5973  15.9149

          k = 0.2509 0.4346-0.1585 (  1192 PWs)   bands (ev):

    -9.7823  -9.7823  -5.0375  -5.0375  -3.5576  -3.5576   2.6831   2.6831
     8.3063   8.3063  15.2392  15.2392

          k = 0.2509 0.5312 0.0000 (  1169 PWs)   bands (ev):

    -8.3637  -8.3145  -6.4992  -6.4661  -4.2799  -4.2545   3.8770   4.3057
     6.6687   6.8852  16.2406  16.2828

          k = 0.2509 0.5312 0.0793 (  1171 PWs)   bands (ev):

    -8.3566  -8.3218  -6.4943  -6.4709  -4.2762  -4.2583   3.9392   4.2429
     6.6956   6.8490  15.9533  16.0660

          k = 0.2509 0.5312-0.1585 (  1180 PWs)   bands (ev):

    -8.3393  -8.3393  -6.4828  -6.4828  -4.2674  -4.2674   4.0907   4.0907
     6.7671   6.7671  15.8496  15.8496

          k = 0.3346 0.5795 0.0000 (  1173 PWs)   bands (ev):

    -7.1264  -7.1010  -7.1010  -7.0771  -5.2101  -5.2101   5.2070   5.4593
     5.4593   5.7334  16.0506  16.0507

          k = 0.3346 0.5795 0.0793 (  1173 PWs)   bands (ev):

    -7.1192  -7.1009  -7.1009  -7.0844  -5.2102  -5.2102   5.2796   5.4620
     5.4620   5.6511  15.8050  15.8050

          k = 0.3346 0.5795-0.1585 (  1182 PWs)   bands (ev):

    -7.1019  -7.1019  -7.1009  -7.1009  -5.2104  -5.2104   5.4601   5.4601
     5.4643   5.4643  15.6228  15.6228

     the Fermi energy is     5.4628 ev

!    total energy              =     -72.46341995 Ry
     total all-electron energy =      -303.579531 Ry
     estimated scf accuracy    <          1.5E-10 Ry
     smearing contrib. (-TS)   =      -0.00052087 Ry
     internal energy E=F+TS    =     -72.46289908 Ry

     The total energy is F=E-TS. E is the sum of the following terms:
     one-electron contribution =     -22.88080001 Ry
     hartree contribution      =      18.88603334 Ry
     xc contribution           =     -18.34369701 Ry
     ewald contribution        =     -26.56236968 Ry
     one-center paw contrib.   =     -23.56206572 Ry

     convergence has been achieved in   5 iterations

     Forces acting on atoms (cartesian axes, Ry/au):

     atom    1 type  1   force =     0.00000000    0.00000000    0.00000000
     atom    2 type  1   force =     0.00000000   -0.00000000    0.00000000
     atom    3 type  1   force =    -0.00000000   -0.00000000    0.00000000
     atom    4 type  1   force =     0.00000000    0.00000000    0.00000000

     Total force =     0.000000     Total SCF correction =     0.000000


     Computing stress (Cartesian axis) and pressure

          total   stress  (Ry/bohr**3)                   (kbar)     P=       -2.63
   0.00000623  -0.00000000  -0.00000000            0.92       -0.00       -0.00
  -0.00000000   0.00000623   0.00000000           -0.00        0.92        0.00
   0.00000000   0.00000000  -0.00006617            0.00        0.00       -9.73

     Energy error            =      2.1E-04 Ry
     Gradient error          =      1.6E-25 Ry/Bohr
     Cell gradient error     =      9.7E+00 kbar

     number of scf cycles    =   3
     number of bfgs steps    =   2

     enthalpy           old  =     -72.4632063476 Ry
     enthalpy           new  =     -72.4634199514 Ry

     CASE: enthalpy          _new < enthalpy          _old

     new trust radius        =       0.0063887429 bohr
ibrav =      4
 celldm(1) =      4.64647982
 celldm(3) =      3.15863556
Input lattice vectors:
     0.99656298    -0.00000000     0.00000000
    -0.49828149     0.86304886     0.00000000
    -0.00000000     0.00000000     3.14777928
New lattice vectors in INITIAL alat:
     0.99656298     0.00000000     0.00000000
    -0.49828149     0.86304886     0.00000000
     0.00000000     0.00000000     3.14777928
New lattice vectors in NEW alat (for information only):
     1.00000000     0.00000000     0.00000000
    -0.50000000     0.86602540     0.00000000
     0.00000000     0.00000000     3.15863556
Discrepancy in bohr =     0.000000    0.000000    0.000000
     new conv_thr            =       0.0000000010 Ry

     new unit-cell volume =    274.41151 a.u.^3 (    40.66359 Ang^3 )
     density =      1.96193 g/cm^3

CELL_PARAMETERS (alat=  4.66250493)
   0.996562982   0.000000000   0.000000000
  -0.498281491   0.863048859   0.000000000
   0.000000000   0.000000000   3.147779275

ATOMIC_POSITIONS (crystal)
C               -0.0000000000       -0.0000000000        0.2500000000
C               -0.0000000000       -0.0000000000        0.7500000000
C                0.3333333330        0.6666666660        0.2500000000
C                0.6666666660        0.3333333330        0.7500000000



     Writing config-only to output data dir ./temp/graphite.save/ :
     XML data file
     NEW-OLD atomic charge density approx. for the potential

     Check: negative core charge=   -0.000011

     total cpu time spent up to now is        7.8 secs

     Self-consistent Calculation

     iteration #  1     ecut=    40.00 Ry     beta= 0.70
     Davidson diagonalization with overlap
     ethr =  1.00E-06,  avg # of iterations =  2.0

     Threshold (ethr) on eigenvalues was too large:
     Diagonalizing with lowered threshold

     Davidson diagonalization with overlap
     ethr =  3.27E-09,  avg # of iterations =  2.1

     total cpu time spent up to now is        8.5 secs

     total energy              =     -72.46345430 Ry
     estimated scf accuracy    <       0.00000053 Ry

     iteration #  2     ecut=    40.00 Ry     beta= 0.70
     Davidson diagonalization with overlap
     ethr =  3.29E-09,  avg # of iterations =  1.0

     total cpu time spent up to now is        8.9 secs

     total energy              =     -72.46345431 Ry
     estimated scf accuracy    <       0.00000004 Ry

     iteration #  3     ecut=    40.00 Ry     beta= 0.70
     Davidson diagonalization with overlap
     ethr =  2.73E-10,  avg # of iterations =  1.0

     total cpu time spent up to now is        9.2 secs

     total energy              =     -72.46345431 Ry
     estimated scf accuracy    <          1.5E-09 Ry

     iteration #  4     ecut=    40.00 Ry     beta= 0.70
     Davidson diagonalization with overlap
     ethr =  9.08E-12,  avg # of iterations =  2.4

     total cpu time spent up to now is        9.6 secs

     End of self-consistent calculation

          k = 0.0000 0.0000 0.0000 (  1193 PWs)   bands (ev):

   -14.1210 -14.0316  -2.6603  -1.7722   2.4729   2.4729   2.4773   2.4773
     8.7106  12.9936  13.8319  13.8319

          k = 0.0000 0.0000 0.0794 (  1212 PWs)   bands (ev):

   -14.1082 -14.0450  -2.5435  -1.9179   2.4733   2.4733   2.4761   2.4761
     9.1702  12.0212  13.8338  13.8345

          k = 0.0000 0.0000-0.1588 (  1194 PWs)   bands (ev):

   -14.0767 -14.0767  -2.2446  -2.2446   2.4746   2.4746   2.4746   2.4746
    10.4056  10.4056  13.8386  13.8386

          k = 0.0000 0.0966 0.0000 (  1206 PWs)   bands (ev):

   -13.9555 -13.8672  -2.4593  -1.5781   1.8184   1.8251   2.1272   2.1329
     8.9218  13.1806  13.8838  13.9163

          k = 0.0000 0.0966 0.0794 (  1197 PWs)   bands (ev):

   -13.9428 -13.8804  -2.3433  -1.7224   1.8193   1.8243   2.1284   2.1323
     9.3787  12.2117  13.8964  13.9138

          k = 0.0000 0.0966-0.1588 (  1182 PWs)   bands (ev):

   -13.9118 -13.9118  -2.0467  -2.0467   1.8220   1.8220   2.1306   2.1306
    10.6068  10.6068  13.9065  13.9065

          k = 0.0000 0.1931 0.0000 (  1182 PWs)   bands (ev):

   -13.4609 -13.3757  -1.8609  -1.0012   0.1690   0.1840   1.3215   1.3294
     9.5562  13.7133  13.8120  13.8840

          k = 0.0000 0.1931 0.0794 (  1184 PWs)   bands (ev):

   -13.4486 -13.3884  -1.7474  -1.1417   0.1712   0.1814   1.3223   1.3282
    10.0043  12.7677  13.8462  13.8796

          k = 0.0000 0.1931-0.1588 (  1194 PWs)   bands (ev):

   -13.4188 -13.4188  -1.4578  -1.4578   0.1759   0.1759   1.3254   1.3254
    11.2069  11.2069  13.8631  13.8631

          k = 0.0000 0.2897 0.0000 (  1186 PWs)   bands (ev):

   -12.6429 -12.5628  -1.9461  -1.9220  -0.8823  -0.0629   0.4278   0.4383
    10.6110  12.6549  12.8808  13.5255

          k = 0.0000 0.2897 0.0794 (  1192 PWs)   bands (ev):

   -12.6314 -12.5748  -1.9428  -1.9257  -0.7736  -0.1961   0.4292   0.4368
    11.0342  12.6852  12.8180  13.4795

          k = 0.0000 0.2897-0.1588 (  1174 PWs)   bands (ev):

   -12.6032 -12.6032  -1.9343  -1.9343  -0.4968  -0.4968   0.4336   0.4336
    12.1168  12.1168  12.8824  12.8825

          k = 0.0000 0.3862 0.0000 (  1192 PWs)   bands (ev):

   -11.5131 -11.4400  -4.1693  -4.1345  -0.3151  -0.3034   0.4323   1.1806
    10.2457  10.6154  12.0684  13.1953

          k = 0.0000 0.3862 0.0794 (  1184 PWs)   bands (ev):

   -11.5026 -11.4509  -4.1641  -4.1394  -0.3133  -0.3054   0.5326   1.0603
    10.2846  10.5487  12.4863  13.2043

          k = 0.0000 0.3862-0.1588 (  1182 PWs)   bands (ev):

   -11.4769 -11.4769  -4.1517  -4.1517  -0.3093  -0.3093   0.7866   0.7866
    10.4044  10.4044  13.1708  13.1708

          k = 0.0000 0.4828 0.0000 (  1196 PWs)   bands (ev):

   -10.0999 -10.0357  -6.2917  -6.2476  -0.7934  -0.7823   1.9428   2.5385
     8.0437   8.4891  12.9419  13.0537

          k = 0.0000 0.4828 0.0794 (  1193 PWs)   bands (ev):

   -10.0906 -10.0453  -6.2853  -6.2540  -0.7920  -0.7837   2.0253   2.4461
     8.0944   8.4097  12.9603  13.0402

          k = 0.0000 0.4828-0.1588 (  1188 PWs)   bands (ev):

   -10.0681 -10.0681  -6.2697  -6.2697  -0.7877  -0.7877   2.2308   2.2308
     8.2382   8.2382  13.0019  13.0019

          k = 0.0000-0.5793 0.0000 (  1188 PWs)   bands (ev):

    -8.7786  -8.7477  -7.8306  -7.8064  -0.9577  -0.9465   2.9413   3.2280
     6.9822   7.3464  12.8604  12.9862

          k = 0.0000-0.5793 0.0794 (  1190 PWs)   bands (ev):

    -8.7738  -8.7520  -7.8274  -7.8103  -0.9561  -0.9481   2.9876   3.1913
     7.0115   7.2695  12.8785  12.9675

          k = 0.0000-0.5793-0.1588 (  1204 PWs)   bands (ev):

    -8.7628  -8.7628  -7.8194  -7.8194  -0.9522  -0.9522   3.0940   3.0940
     7.1169   7.1169  12.9225  12.9225

          k = 0.0836 0.1448 0.0000 (  1195 PWs)   bands (ev):

   -13.6255 -13.5393  -2.0595  -1.1924   0.7824   0.7894   1.4375   1.4427
     9.3453  13.5480  14.1563  14.2149

          k = 0.0836 0.1448 0.0794 (  1192 PWs)   bands (ev):

   -13.6131 -13.5522  -1.9451  -1.3342   0.7834   0.7884   1.4384   1.4421
     9.7966  12.5907  14.1832  14.2102

          k = 0.0836 0.1448-0.1588 (  1192 PWs)   bands (ev):

   -13.5828 -13.5828  -1.6531  -1.6531   0.7858   0.7858   1.4401   1.4401
    11.0092  11.0092  14.1989  14.1989

          k = 0.0836 0.2414 0.0000 (  1191 PWs)   bands (ev):

   -12.9692 -12.8871  -1.2700  -0.9395  -0.9235  -0.4335   0.4225   0.4324
    10.1922  13.5608  13.6963  14.3048

          k = 0.0836 0.2414 0.0794 (  1192 PWs)   bands (ev):

   -12.9574 -12.8994  -1.1593  -0.9372  -0.9258  -0.5698   0.4238   0.4307
    10.6302  13.2832  13.5942  13.7506

          k = 0.0836 0.2414-0.1588 (  1192 PWs)   bands (ev):

   -12.9286 -12.9286  -0.9317  -0.9317  -0.8769  -0.8769   0.4273   0.4273
    11.8030  11.8030  13.6521  13.6521

          k = 0.0836 0.3379 0.0000 (  1189 PWs)   bands (ev):

   -11.9952 -11.9192  -3.0324  -3.0042  -0.4750  -0.4619  -0.1180   0.6651
    11.3291  11.4552  11.5993  14.0514

          k = 0.0836 0.3379 0.0794 (  1187 PWs)   bands (ev):

   -11.9843 -11.9305  -3.0282  -3.0083  -0.4731  -0.4638  -0.0137   0.5384
    11.3380  11.5459  11.9119  14.0212

          k = 0.0836 0.3379-0.1588 (  1184 PWs)   bands (ev):

   -11.9576 -11.9576  -3.0182  -3.0182  -0.4686  -0.4686   0.2514   0.2514
    11.4371  11.4371  13.0217  13.0217

          k = 0.0836 0.4345 0.0000 (  1189 PWs)   bands (ev):

   -10.7214 -10.6531  -5.1768  -5.1379  -1.1169  -1.1019   1.3230   2.0073
     9.0322   9.4205  13.1037  13.7736

          k = 0.0836 0.4345 0.0794 (  1189 PWs)   bands (ev):

   -10.7116 -10.6633  -5.1711  -5.1437  -1.1147  -1.1041   1.4156   1.8986
     9.0792   9.3548  13.4642  13.7898

          k = 0.0836 0.4345-0.1588 (  1186 PWs)   bands (ev):

   -10.6876 -10.6876  -5.1574  -5.1574  -1.1094  -1.1094   1.6492   1.6492
     9.2076   9.2076  13.7960  13.7960

          k = 0.0836 0.5311 0.0000 (  1191 PWs)   bands (ev):

    -9.2144  -9.1584  -7.1462  -7.1014  -1.4487  -1.4330   2.7635   3.1989
     7.2514   7.6319  13.5947  13.7339

          k = 0.0836 0.5311 0.0794 (  1184 PWs)   bands (ev):

    -9.2063  -9.1667  -7.1397  -7.1080  -1.4464  -1.4352   2.8277   3.1359
     7.2895   7.5594  13.6148  13.7134

          k = 0.0836 0.5311-0.1588 (  1188 PWs)   bands (ev):

    -9.1866  -9.1866  -7.1239  -7.1239  -1.4408  -1.4408   2.9821   2.9821
     7.4074   7.4074  13.6636  13.6636

          k = 0.1672 0.2897 0.0000 (  1185 PWs)   bands (ev):

   -12.1570 -12.0799  -2.2648  -2.2518  -0.9642  -0.9546  -0.3037   0.4904
    11.2494  11.8274  12.0040  15.0371

          k = 0.1672 0.2897 0.0794 (  1190 PWs)   bands (ev):

   -12.1459 -12.0914  -2.2629  -2.2537  -0.9629  -0.9561  -0.1982   0.3616
    11.6670  11.8529  11.9787  14.2063

          k = 0.1672 0.2897-0.1588 (  1190 PWs)   bands (ev):

   -12.1189 -12.1189  -2.2584  -2.2584  -0.9595  -0.9595   0.0703   0.0703
    11.9147  11.9147  12.7855  12.7855

          k = 0.1672 0.3862 0.0000 (  1191 PWs)   bands (ev):

   -11.0380 -10.9678  -4.0118  -3.9846  -2.0340  -2.0159   0.9959   1.7187
     9.8241  10.0709  12.7126  15.6635

          k = 0.1672 0.3862 0.0794 (  1187 PWs)   bands (ev):

   -11.0279 -10.9782  -4.0078  -3.9886  -2.0313  -2.0186   1.0930   1.6028
     9.8579  10.0332  13.0938  15.2674

          k = 0.1672 0.3862-0.1588 (  1194 PWs)   bands (ev):

   -11.0032 -11.0032  -3.9982  -3.9982  -2.0250  -2.0250   1.3385   1.3385
     9.9437   9.9437  14.0894  14.0894

          k = 0.1672 0.4828 0.0000 (  1179 PWs)   bands (ev):

    -9.6447  -9.5834  -5.9503  -5.9106  -2.6123  -2.5895   2.5047   3.0872
     7.8539   8.1770  14.5461  15.4622

          k = 0.1672 0.4828 0.0794 (  1186 PWs)   bands (ev):

    -9.6358  -9.5925  -5.9446  -5.9166  -2.6091  -2.5930   2.5852   2.9968
     7.8944   8.1237  14.8396  15.4773

          k = 0.1672 0.4828-0.1588 (  1182 PWs)   bands (ev):

    -9.6143  -9.6143  -5.9306  -5.9306  -2.6010  -2.6010   2.7860   2.7860
     8.0030   8.0030  15.4233  15.4233

          k = 0.1672 0.5793 0.0000 (  1176 PWs)   bands (ev):

    -8.3570  -8.3277  -7.4166  -7.3951  -2.7977  -2.7737   3.5459   3.8271
     6.8472   7.0449  15.3640  15.5972

          k = 0.1672 0.5793 0.0794 (  1174 PWs)   bands (ev):

    -8.3525  -8.3317  -7.4138  -7.3986  -2.7943  -2.7771   3.5920   3.7918
     6.8587   7.0004  15.3918  15.5548

          k = 0.1672 0.5793-0.1588 (  1176 PWs)   bands (ev):

    -8.3419  -8.3419  -7.4066  -7.4066  -2.7858  -2.7858   3.6970   3.6970
     6.9131   6.9131  15.4641  15.4641

          k = 0.2509 0.4345 0.0000 (  1183 PWs)   bands (ev):

    -9.7957  -9.7332  -5.0316  -5.0122  -3.5474  -3.5324   2.3985   3.0260
     8.2026   8.4355  14.3459  16.2715

          k = 0.2509 0.4345 0.0794 (  1183 PWs)   bands (ev):

    -9.7866  -9.7425  -5.0288  -5.0150  -3.5453  -3.5347   2.4838   2.9271
     8.2367   8.4011  14.6152  15.9352

          k = 0.2509 0.4345-0.1588 (  1192 PWs)   bands (ev):

    -9.7647  -9.7647  -5.0219  -5.0219  -3.5402  -3.5402   2.6986   2.6986
     8.3185   8.3185  15.2585  15.2585

          k = 0.2509 0.5311 0.0000 (  1169 PWs)   bands (ev):

    -8.3475  -8.2972  -6.4831  -6.4493  -4.2625  -4.2366   3.8887   4.3231
     6.6806   6.9001  16.2546  16.2995

          k = 0.2509 0.5311 0.0794 (  1171 PWs)   bands (ev):

    -8.3402  -8.3047  -6.4781  -6.4542  -4.2588  -4.2405   3.9518   4.2596
     6.7078   6.8633  15.9648  16.0793

          k = 0.2509 0.5311-0.1588 (  1180 PWs)   bands (ev):

    -8.3225  -8.3225  -6.4663  -6.4663  -4.2498  -4.2498   4.1054   4.1054
     6.7802   6.7802  15.8603  15.8603

          k = 0.3345 0.5793 0.0000 (  1173 PWs)   bands (ev):

    -7.1109  -7.0850  -7.0850  -7.0607  -5.1911  -5.1911   5.2173   5.4731
     5.4731   5.7512  16.0657  16.0657

          k = 0.3345 0.5793 0.0794 (  1173 PWs)   bands (ev):

    -7.1036  -7.0849  -7.0849  -7.0681  -5.1913  -5.1913   5.2908   5.4758
     5.4758   5.6677  15.8167  15.8167

          k = 0.3345 0.5793-0.1588 (  1182 PWs)   bands (ev):

    -7.0860  -7.0860  -7.0849  -7.0849  -5.1915  -5.1915   5.4739   5.4739
     5.4783   5.4783  15.6325  15.6325

     the Fermi energy is     5.4766 ev

!    total energy              =     -72.46345431 Ry
     total all-electron energy =      -303.579566 Ry
     estimated scf accuracy    <          4.7E-10 Ry
     smearing contrib. (-TS)   =      -0.00051875 Ry
     internal energy E=F+TS    =     -72.46293556 Ry

     The total energy is F=E-TS. E is the sum of the following terms:
     one-electron contribution =     -22.68733763 Ry
     hartree contribution      =      18.79779753 Ry
     xc contribution           =     -18.34172053 Ry
     ewald contribution        =     -26.66969650 Ry
     one-center paw contrib.   =     -23.56197843 Ry

     convergence has been achieved in   4 iterations

     Forces acting on atoms (cartesian axes, Ry/au):

     atom    1 type  1   force =     0.00000000    0.00000000    0.00000000
     atom    2 type  1   force =    -0.00000000   -0.00000000    0.00000000
     atom    3 type  1   force =     0.00000000    0.00000000    0.00000000
     atom    4 type  1   force =    -0.00000000   -0.00000000    0.00000000

     Total force =     0.000000     Total SCF correction =     0.000000


     Computing stress (Cartesian axis) and pressure

          total   stress  (Ry/bohr**3)                   (kbar)     P=       -4.14
  -0.00000999  -0.00000000  -0.00000000           -1.47       -0.00       -0.00
  -0.00000000  -0.00000999   0.00000000           -0.00       -1.47        0.00
  -0.00000000   0.00000000  -0.00006454           -0.00        0.00       -9.49

     Energy error            =      3.4E-05 Ry
     Gradient error          =      2.1E-25 Ry/Bohr
     Cell gradient error     =      9.5E+00 kbar

     number of scf cycles    =   4
     number of bfgs steps    =   3

     enthalpy           old  =     -72.4634199514 Ry
     enthalpy           new  =     -72.4634543087 Ry

     CASE: enthalpy          _new < enthalpy          _old


     WARNING: bfgs curvature condition failed, Theta= 0.868
     new trust radius        =       0.0070359442 bohr
ibrav =      4
 celldm(1) =      4.64702898
 celldm(3) =      3.15155512
Input lattice vectors:
     0.99668076    -0.00000000    -0.00000000
    -0.49834038     0.86315086     0.00000000
     0.00000000    -0.00000000     3.14109437
New lattice vectors in INITIAL alat:
     0.99668076     0.00000000     0.00000000
    -0.49834038     0.86315086     0.00000000
     0.00000000     0.00000000     3.14109437
New lattice vectors in NEW alat (for information only):
     1.00000000     0.00000000     0.00000000
    -0.50000000     0.86602540     0.00000000
     0.00000000     0.00000000     3.15155512
Discrepancy in bohr =     0.000000    0.000000    0.000000
     new conv_thr            =       0.0000000010 Ry

     new unit-cell volume =    273.89347 a.u.^3 (    40.58683 Ang^3 )
     density =      1.96564 g/cm^3

CELL_PARAMETERS (alat=  4.66250493)
   0.996680764   0.000000000   0.000000000
  -0.498340382   0.863150861   0.000000000
   0.000000000   0.000000000   3.141094366

ATOMIC_POSITIONS (crystal)
C                0.0000000000        0.0000000000        0.2500000000
C               -0.0000000000       -0.0000000000        0.7500000000
C                0.3333333330        0.6666666660        0.2500000000
C                0.6666666660        0.3333333330        0.7500000000



     Writing config-only to output data dir ./temp/graphite.save/ :
     XML data file
     NEW-OLD atomic charge density approx. for the potential

     Check: negative core charge=   -0.000011

     total cpu time spent up to now is       10.0 secs

     Self-consistent Calculation

     iteration #  1     ecut=    40.00 Ry     beta= 0.70
     Davidson diagonalization with overlap
     ethr =  1.00E-06,  avg # of iterations =  2.0

     Threshold (ethr) on eigenvalues was too large:
     Diagonalizing with lowered threshold

     Davidson diagonalization with overlap
     ethr =  3.74E-09,  avg # of iterations =  2.1

     total cpu time spent up to now is       10.8 secs

     total energy              =     -72.46349056 Ry
     estimated scf accuracy    <       0.00000055 Ry

     iteration #  2     ecut=    40.00 Ry     beta= 0.70
     Davidson diagonalization with overlap
     ethr =  3.42E-09,  avg # of iterations =  1.0

     total cpu time spent up to now is       11.1 secs

     total energy              =     -72.46349056 Ry
     estimated scf accuracy    <       0.00000005 Ry

     iteration #  3     ecut=    40.00 Ry     beta= 0.70
     Davidson diagonalization with overlap
     ethr =  3.10E-10,  avg # of iterations =  1.2

     total cpu time spent up to now is       11.5 secs

     total energy              =     -72.46349056 Ry
     estimated scf accuracy    <          4.2E-09 Ry

     iteration #  4     ecut=    40.00 Ry     beta= 0.70
     Davidson diagonalization with overlap
     ethr =  2.65E-11,  avg # of iterations =  1.7

     total cpu time spent up to now is       11.9 secs

     End of self-consistent calculation

          k = 0.0000 0.0000 0.0000 (  1193 PWs)   bands (ev):

   -14.1008 -14.0097  -2.6453  -1.7454   2.4909   2.4909   2.4954   2.4954
     8.7366  13.0441  13.8476  13.8476

          k = 0.0000 0.0000 0.0796 (  1212 PWs)   bands (ev):

   -14.0877 -14.0233  -2.5271  -1.8932   2.4913   2.4913   2.4942   2.4942
     9.1995  12.0673  13.8496  13.8503

          k = 0.0000 0.0000-0.1592 (  1194 PWs)   bands (ev):

   -14.0557 -14.0557  -2.2243  -2.2243   2.4927   2.4927   2.4927   2.4927
    10.4429  10.4429  13.8544  13.8544

          k = 0.0000 0.0965 0.0000 (  1206 PWs)   bands (ev):

   -13.9354 -13.8453  -2.4444  -1.5514   1.8365   1.8433   2.1453   2.1512
     8.9476  13.2307  13.8996  13.9324

          k = 0.0000 0.0965 0.0796 (  1197 PWs)   bands (ev):

   -13.9224 -13.8588  -2.3269  -1.6978   1.8374   1.8426   2.1465   2.1505
     9.4078  12.2574  13.9122  13.9297

          k = 0.0000 0.0965-0.1592 (  1182 PWs)   bands (ev):

   -13.8908 -13.8908  -2.0265  -2.0265   1.8401   1.8401   2.1487   2.1487
    10.6438  10.6438  13.9223  13.9223

          k = 0.0000 0.1931 0.0000 (  1182 PWs)   bands (ev):

   -13.4408 -13.3539  -1.8461  -0.9748   0.1872   0.2026   1.3398   1.3479
     9.5816  13.7613  13.8273  13.8999

          k = 0.0000 0.1931 0.0796 (  1184 PWs)   bands (ev):

   -13.4283 -13.3669  -1.7311  -1.1173   0.1894   0.1999   1.3407   1.3468
    10.0328  12.8117  13.8620  13.8956

          k = 0.0000 0.1931-0.1592 (  1194 PWs)   bands (ev):

   -13.3979 -13.3979  -1.4378  -1.4378   0.1943   0.1943   1.3438   1.3438
    11.2431  11.2431  13.8787  13.8787

          k = 0.0000 0.2896 0.0000 (  1186 PWs)   bands (ev):

   -12.6229 -12.5413  -1.9276  -1.9029  -0.8676  -0.0371   0.4464   0.4572
    10.6356  12.6690  12.8992  13.5399

          k = 0.0000 0.2896 0.0796 (  1192 PWs)   bands (ev):

   -12.6112 -12.5535  -1.9242  -1.9067  -0.7575  -0.1722   0.4479   0.4557
    11.0616  12.7010  12.8359  13.4977

          k = 0.0000 0.2896-0.1592 (  1174 PWs)   bands (ev):

   -12.5825 -12.5825  -1.9155  -1.9155  -0.4771  -0.4771   0.4523   0.4523
    12.1487  12.1487  12.9004  12.9004

          k = 0.0000 0.3862 0.0000 (  1192 PWs)   bands (ev):

   -11.4933 -11.4188  -4.1504  -4.1149  -0.2963  -0.2843   0.4470   1.2055
    10.2597  10.6350  12.0917  13.2093

          k = 0.0000 0.3862 0.0796 (  1184 PWs)   bands (ev):

   -11.4826 -11.4299  -4.1451  -4.1199  -0.2944  -0.2863   0.5485   1.0835
    10.2992  10.5673  12.5119  13.2188

          k = 0.0000 0.3862-0.1592 (  1182 PWs)   bands (ev):

   -11.4564 -11.4564  -4.1325  -4.1325  -0.2903  -0.2903   0.8059   0.8059
    10.4208  10.4208  13.1878  13.1879

          k = 0.0000 0.4827 0.0000 (  1196 PWs)   bands (ev):

   -10.0804 -10.0149  -6.2724  -6.2274  -0.7744  -0.7631   1.9578   2.5618
     8.0585   8.5099  12.9555  13.0696

          k = 0.0000 0.4827 0.0796 (  1193 PWs)   bands (ev):

   -10.0710 -10.0247  -6.2659  -6.2339  -0.7729  -0.7645   2.0414   2.4681
     8.1097   8.4294  12.9742  13.0558

          k = 0.0000 0.4827-0.1592 (  1188 PWs)   bands (ev):

   -10.0480 -10.0480  -6.2499  -6.2499  -0.7686  -0.7686   2.2497   2.2497
     8.2554   8.2554  13.0166  13.0166

          k = 0.0000-0.5793 0.0000 (  1188 PWs)   bands (ev):

    -8.7596  -8.7280  -7.8103  -7.7856  -0.9387  -0.9272   2.9575   3.2485
     6.9988   7.3672  12.8739  13.0020

          k = 0.0000-0.5793 0.0796 (  1190 PWs)   bands (ev):

    -8.7547  -8.7324  -7.8071  -7.7896  -0.9370  -0.9288   3.0045   3.2114
     7.0281   7.2891  12.8924  12.9830

          k = 0.0000-0.5793-0.1592 (  1204 PWs)   bands (ev):

    -8.7434  -8.7434  -7.7989  -7.7989  -0.9330  -0.9330   3.1126   3.1126
     7.1345   7.1345  12.9372  12.9372

          k = 0.0836 0.1448 0.0000 (  1195 PWs)   bands (ev):

   -13.6054 -13.5175  -2.0446  -1.1660   0.8006   0.8078   1.4559   1.4612
     9.3708  13.5972  14.1721  14.2309

          k = 0.0836 0.1448 0.0796 (  1192 PWs)   bands (ev):

   -13.5927 -13.5306  -1.9288  -1.3098   0.8016   0.8067   1.4568   1.4606
     9.8254  12.6356  14.1991  14.2261

          k = 0.0836 0.1448-0.1592 (  1192 PWs)   bands (ev):

   -13.5619 -13.5619  -1.6331  -1.6331   0.8041   0.8041   1.4585   1.4585
    11.0457  11.0457  14.2147  14.2147

          k = 0.0836 0.2414 0.0000 (  1191 PWs)   bands (ev):

   -12.9492 -12.8655  -1.2553  -0.9211  -0.9047  -0.4074   0.4412   0.4512
    10.2171  13.5750  13.7147  14.3499

          k = 0.0836 0.2414 0.0796 (  1192 PWs)   bands (ev):

   -12.9372 -12.8780  -1.1431  -0.9188  -0.9071  -0.5457   0.4425   0.4495
    10.6581  13.3228  13.6087  13.7694

          k = 0.0836 0.2414-0.1592 (  1192 PWs)   bands (ev):

   -12.9078 -12.9078  -0.9132  -0.9132  -0.8570  -0.8570   0.4460   0.4460
    11.8382  11.8382  13.6673  13.6673

          k = 0.0836 0.3379 0.0000 (  1189 PWs)   bands (ev):

   -11.9754 -11.8978  -3.0137  -2.9849  -0.4561  -0.4427  -0.1033   0.6905
    11.3432  11.4791  11.6178  14.0656

          k = 0.0836 0.3379 0.0796 (  1187 PWs)   bands (ev):

   -11.9642 -11.9094  -3.0095  -2.9891  -0.4542  -0.4447   0.0023   0.5619
    11.3530  11.5639  11.9382  14.0379

          k = 0.0836 0.3379-0.1592 (  1184 PWs)   bands (ev):

   -11.9370 -11.9370  -2.9992  -2.9992  -0.4496  -0.4496   0.2709   0.2709
    11.4534  11.4534  13.0545  13.0545

          k = 0.0836 0.4345 0.0000 (  1189 PWs)   bands (ev):

   -10.7018 -10.6321  -5.1578  -5.1181  -1.0980  -1.0826   1.3377   2.0315
     9.0465   9.4405  13.1259  13.7873

          k = 0.0836 0.4345 0.0796 (  1189 PWs)   bands (ev):

   -10.6918 -10.6425  -5.1519  -5.1240  -1.0956  -1.0848   1.4316   1.9212
     9.0942   9.3738  13.4876  13.8040

          k = 0.0836 0.4345-0.1592 (  1186 PWs)   bands (ev):

   -10.6673 -10.6673  -5.1380  -5.1380  -1.0902  -1.0902   1.6683   1.6683
     9.2244   9.2244  13.8112  13.8112

          k = 0.0836 0.5310 0.0000 (  1191 PWs)   bands (ev):

    -9.1952  -9.1380  -7.1267  -7.0809  -1.4296  -1.4136   2.7790   3.2206
     7.2672   7.6526  13.6080  13.7497

          k = 0.0836 0.5310 0.0796 (  1184 PWs)   bands (ev):

    -9.1869  -9.1464  -7.1200  -7.0877  -1.4272  -1.4158   2.8441   3.1568
     7.3056   7.5789  13.6285  13.7288

          k = 0.0836 0.5310-0.1592 (  1188 PWs)   bands (ev):

    -9.1668  -9.1668  -7.1039  -7.1039  -1.4215  -1.4215   3.0008   3.0008
     7.4248   7.4248  13.6782  13.6782

          k = 0.1672 0.2896 0.0000 (  1185 PWs)   bands (ev):

   -12.1371 -12.0585  -2.2463  -2.2330  -0.9451  -0.9353  -0.2890   0.5159
    11.2736  11.8418  12.0214  15.0806

          k = 0.1672 0.2896 0.0796 (  1190 PWs)   bands (ev):

   -12.1258 -12.0703  -2.2443  -2.2349  -0.9438  -0.9368  -0.1822   0.3852
    11.6940  11.8678  11.9957  14.2465

          k = 0.1672 0.2896-0.1592 (  1190 PWs)   bands (ev):

   -12.0982 -12.0982  -2.2397  -2.2397  -0.9403  -0.9403   0.0899   0.0899
    11.9305  11.9305  12.8192  12.8192

          k = 0.1672 0.3862 0.0000 (  1191 PWs)   bands (ev):

   -11.0183 -10.9466  -3.9930  -3.9652  -2.0147  -1.9963   1.0105   1.7433
     9.8387  10.0894  12.7356  15.6770

          k = 0.1672 0.3862 0.0796 (  1187 PWs)   bands (ev):

   -11.0080 -10.9573  -3.9890  -3.9693  -2.0120  -1.9990   1.1089   1.6257
     9.8731  10.0512  13.1193  15.3002

          k = 0.1672 0.3862-0.1592 (  1194 PWs)   bands (ev):

   -10.9828 -10.9828  -3.9792  -3.9792  -2.0056  -2.0056   1.3577   1.3577
     9.9603   9.9603  14.1201  14.1201

          k = 0.1672 0.4827 0.0000 (  1179 PWs)   bands (ev):

    -9.6253  -9.5627  -5.9312  -5.8906  -2.5930  -2.5697   2.5196   3.1103
     7.8690   8.1967  14.5673  15.4750

          k = 0.1672 0.4827 0.0796 (  1186 PWs)   bands (ev):

    -9.6162  -9.5720  -5.9254  -5.8967  -2.5897  -2.5732   2.6012   3.0186
     7.9100   8.1426  14.8621  15.4906

          k = 0.1672 0.4827-0.1592 (  1182 PWs)   bands (ev):

    -9.5942  -9.5942  -5.9110  -5.9110  -2.5814  -2.5814   2.8048   2.8048
     8.0202   8.0202  15.4417  15.4417

          k = 0.1672 0.5793 0.0000 (  1176 PWs)   bands (ev):

    -8.3380  -8.3080  -7.3965  -7.3745  -2.7784  -2.7538   3.5620   3.8474
     6.8646   7.0643  15.3767  15.6131

          k = 0.1672 0.5793 0.0796 (  1174 PWs)   bands (ev):

    -8.3333  -8.3121  -7.3937  -7.3781  -2.7749  -2.7574   3.6088   3.8116
     6.8759   7.0191  15.4048  15.5700

          k = 0.1672 0.5793-0.1592 (  1176 PWs)   bands (ev):

    -8.3226  -8.3226  -7.3863  -7.3863  -2.7662  -2.7662   3.7155   3.7155
     6.9306   6.9306  15.4780  15.4780

          k = 0.2508 0.4345 0.0000 (  1183 PWs)   bands (ev):

    -9.7763  -9.7124  -5.0128  -4.9930  -3.5275  -3.5122   2.4131   3.0495
     8.2178   8.4544  14.3674  16.2989

          k = 0.2508 0.4345 0.0796 (  1183 PWs)   bands (ev):

    -9.7669  -9.7219  -5.0099  -4.9959  -3.5254  -3.5145   2.4996   2.9492
     8.2524   8.4195  14.6379  15.9608

[...]
        k(   32) = (   0.0836218   0.4345118   0.0868124), wk =   0.0833333
        k(   33) = (   0.0836218   0.4345118  -0.1736248), wk =   0.0416667
        k(   34) = (   0.0836218   0.5310700   0.0000000), wk =   0.0416667
        k(   35) = (   0.0836218   0.5310700   0.0868124), wk =   0.0833333
        k(   36) = (   0.0836218   0.5310700  -0.1736248), wk =   0.0416667
        k(   37) = (   0.1672437   0.2896745   0.0000000), wk =   0.0208333
        k(   38) = (   0.1672437   0.2896745   0.0868124), wk =   0.0416667
        k(   39) = (   0.1672437   0.2896745  -0.1736248), wk =   0.0208333
        k(   40) = (   0.1672437   0.3862327   0.0000000), wk =   0.0416667
        k(   41) = (   0.1672437   0.3862327   0.0868124), wk =   0.0833333
        k(   42) = (   0.1672437   0.3862327  -0.1736248), wk =   0.0416667
        k(   43) = (   0.1672437   0.4827909   0.0000000), wk =   0.0416667
        k(   44) = (   0.1672437   0.4827909   0.0868124), wk =   0.0833333
        k(   45) = (   0.1672437   0.4827909  -0.1736248), wk =   0.0416667
        k(   46) = (   0.1672437   0.5793491   0.0000000), wk =   0.0208333
        k(   47) = (   0.1672437   0.5793491   0.0868124), wk =   0.0416667
        k(   48) = (   0.1672437   0.5793491  -0.1736248), wk =   0.0208333
        k(   49) = (   0.2508655   0.4345118   0.0000000), wk =   0.0208333
        k(   50) = (   0.2508655   0.4345118   0.0868124), wk =   0.0416667
        k(   51) = (   0.2508655   0.4345118  -0.1736248), wk =   0.0208333
        k(   52) = (   0.2508655   0.5310700   0.0000000), wk =   0.0416667
        k(   53) = (   0.2508655   0.5310700   0.0868124), wk =   0.0833333
        k(   54) = (   0.2508655   0.5310700  -0.1736248), wk =   0.0416667
        k(   55) = (   0.3344873   0.5793491   0.0000000), wk =   0.0069444
        k(   56) = (   0.3344873   0.5793491   0.0868124), wk =   0.0138889
        k(   57) = (   0.3344873   0.5793491  -0.1736248), wk =   0.0069444

     Dense  grid:    24263 G-vectors     FFT dimensions: (  27,  27,  80)

     Smooth grid:     8623 G-vectors     FFT dimensions: (  20,  20,  60)

     Estimated max dynamical RAM per process >      12.30 MB

     Estimated total dynamical RAM >      49.20 MB

     Check: negative core charge=   -0.000012

     Initial potential from superposition of free atoms

     starting charge      15.9998, renormalised to      16.0000
     Starting wfcs are   16 randomized atomic wfcs
     Checking if some PAW data can be deallocated... 

     total cpu time spent up to now is       33.6 secs

     Self-consistent Calculation

     iteration #  1     ecut=    40.00 Ry     beta= 0.70
     Davidson diagonalization with overlap
     c_bands:  1 eigenvalues not converged
     c_bands:  1 eigenvalues not converged
     c_bands:  1 eigenvalues not converged
     c_bands:  1 eigenvalues not converged
     c_bands:  2 eigenvalues not converged
     c_bands:  1 eigenvalues not converged
     c_bands:  2 eigenvalues not converged
     c_bands:  2 eigenvalues not converged
     c_bands:  2 eigenvalues not converged
     c_bands:  2 eigenvalues not converged
     c_bands:  2 eigenvalues not converged
     c_bands:  2 eigenvalues not converged
     c_bands:  2 eigenvalues not converged
     c_bands:  1 eigenvalues not converged
     c_bands:  2 eigenvalues not converged
     c_bands:  2 eigenvalues not converged
     c_bands:  2 eigenvalues not converged
     c_bands:  2 eigenvalues not converged
     ethr =  1.00E-06,  avg # of iterations = 14.9

     total cpu time spent up to now is       34.9 secs

     total energy              =     -72.40016949 Ry
     estimated scf accuracy    <       0.39990254 Ry

     iteration #  2     ecut=    40.00 Ry     beta= 0.70
     Davidson diagonalization with overlap
     ethr =  2.50E-03,  avg # of iterations =  2.3

     total cpu time spent up to now is       35.3 secs

     total energy              =     -72.46301322 Ry
     estimated scf accuracy    <       0.00434674 Ry

     iteration #  3     ecut=    40.00 Ry     beta= 0.70
     Davidson diagonalization with overlap
     ethr =  2.72E-05,  avg # of iterations =  4.5

     total cpu time spent up to now is       35.7 secs

     total energy              =     -72.46346572 Ry
     estimated scf accuracy    <       0.00033245 Ry

     iteration #  4     ecut=    40.00 Ry     beta= 0.70
     Davidson diagonalization with overlap
     ethr =  2.08E-06,  avg # of iterations =  3.1

     total cpu time spent up to now is       36.1 secs

     total energy              =     -72.46350598 Ry
     estimated scf accuracy    <       0.00000606 Ry

     iteration #  5     ecut=    40.00 Ry     beta= 0.70
     Davidson diagonalization with overlap
     ethr =  3.79E-08,  avg # of iterations =  3.1

     total cpu time spent up to now is       36.6 secs

     total energy              =     -72.46350905 Ry
     estimated scf accuracy    <       0.00000036 Ry

     iteration #  6     ecut=    40.00 Ry     beta= 0.70
     Davidson diagonalization with overlap
     ethr =  2.25E-09,  avg # of iterations =  2.1

     total cpu time spent up to now is       36.9 secs

     total energy              =     -72.46350917 Ry
     estimated scf accuracy    <       0.00000003 Ry

     iteration #  7     ecut=    40.00 Ry     beta= 0.70
     Davidson diagonalization with overlap
     ethr =  2.03E-10,  avg # of iterations =  2.0

     total cpu time spent up to now is       37.3 secs

     total energy              =     -72.46350917 Ry
     estimated scf accuracy    <          3.3E-09 Ry

     iteration #  8     ecut=    40.00 Ry     beta= 0.70
     Davidson diagonalization with overlap
     ethr =  2.06E-11,  avg # of iterations =  1.9

     total cpu time spent up to now is       37.6 secs

     End of self-consistent calculation

          k = 0.0000 0.0000 0.0000 (  1119 PWs)   bands (ev):

   -13.2706 -13.0758  -2.0391  -0.5491   3.3740   3.3740   3.3848   3.3848
     9.9923  14.7272  14.7277  14.7597

          k = 0.0000 0.0000 0.0868 (  1071 PWs)   bands (ev):

   -13.2429 -13.1052  -1.8495  -0.8039   3.3773   3.3773   3.3840   3.3840
    10.6141  14.7334  14.7335  14.7554

          k = 0.0000 0.0000-0.1736 (  1072 PWs)   bands (ev):

   -13.1752 -13.1752  -1.3587  -1.3587   3.3805   3.3805   3.3805   3.3805
    12.2288  12.2288  14.7443  14.7443

          k = 0.0000 0.0966 0.0000 (  1082 PWs)   bands (ev):

   -13.1046 -12.9117  -1.8365  -0.3571   2.7176   2.7366   3.0281   3.0439
    10.1982  14.7797  14.8359  15.4338

          k = 0.0000 0.0966 0.0868 (  1080 PWs)   bands (ev):

   -13.0773 -12.9410  -1.6484  -0.6100   2.7204   2.7336   3.0299   3.0412
    10.8156  14.4065  14.8160  14.8310

          k = 0.0000 0.0966-0.1736 (  1078 PWs)   bands (ev):

   -13.0102 -13.0102  -1.1607  -1.1607   2.7271   2.7271   3.0357   3.0357
    12.4182  12.4182  14.8151  14.8151

          k = 0.0000 0.1931 0.0000 (  1074 PWs)   bands (ev):

   -12.6082 -12.4217  -1.2339   0.2133   1.0619   1.1006   2.2194   2.2414
    10.8174  14.6964  14.8195  15.6735

          k = 0.0000 0.1931 0.0868 (  1079 PWs)   bands (ev):

   -12.5819 -12.4501  -1.0496  -0.0337   1.0674   1.0947   2.2224   2.2381
    11.4204  14.6307  14.7981  15.0356

          k = 0.0000 0.1931-0.1736 (  1074 PWs)   bands (ev):

   -12.5170 -12.5170  -0.5719  -0.5719   1.0811   1.0811   2.2307   2.2307
    12.9794  12.9794  14.7781  14.7781

          k = 0.0000 0.2897 0.0000 (  1072 PWs)   bands (ev):

   -11.7875 -11.6112  -1.0595  -0.9996  -0.2471   1.1384   1.3252   1.3518
    11.8459  13.4556  13.9070  14.3908

          k = 0.0000 0.2897 0.0868 (  1072 PWs)   bands (ev):

   -11.7626 -11.6380  -1.0508  -1.0084  -0.0695   0.9035   1.3287   1.3478
    12.4023  13.5382  13.8143  14.4029

          k = 0.0000 0.2897-0.1736 (  1078 PWs)   bands (ev):

   -11.7012 -11.7012  -1.0298  -1.0298   0.3893   0.3893   1.3381   1.3381
    13.4992  13.4992  14.0445  14.0445

          k = 0.0000 0.3862 0.0000 (  1076 PWs)   bands (ev):

   -10.6541 -10.4919  -3.2880  -3.2062   0.5807   0.6107   1.0830   2.3566
    11.0041  11.6719  13.2550  14.0498

          k = 0.0000 0.3862 0.0868 (  1073 PWs)   bands (ev):

   -10.6310 -10.5164  -3.2762  -3.2184   0.5849   0.6062   1.2484   2.1444
    11.0752  11.5521  13.7630  14.0837

          k = 0.0000 0.3862-0.1736 (  1060 PWs)   bands (ev):

   -10.5745 -10.5745  -3.2474  -3.2474   0.5961   0.5961   1.6734   1.6734
    11.2927  11.2927  14.1134  14.1134

          k = 0.0000 0.4828 0.0000 (  1080 PWs)   bands (ev):

    -9.2360  -9.0922  -5.4163  -5.3144   0.1017   0.1326   2.6287   3.6520
     8.8054   9.5666  13.7798  14.0242

          k = 0.0000 0.4828 0.0868 (  1075 PWs)   bands (ev):

    -9.2155  -9.1138  -5.4017  -5.3295   0.1062   0.1284   2.7685   3.4919
     8.8818   9.4225  13.8171  13.9906

          k = 0.0000 0.4828-0.1736 (  1078 PWs)   bands (ev):

    -9.1652  -9.1652  -5.3660  -5.3660   0.1172   0.1172   3.1197   3.1197
     9.1195   9.1195  13.9047  13.9047

          k = 0.0000-0.5793 0.0000 (  1060 PWs)   bands (ev):

    -7.8968  -7.8264  -6.9390  -6.8849  -0.0629  -0.0303   3.6994   4.2066
     7.8335   8.3978  13.6946  13.9588

          k = 0.0000-0.5793 0.0868 (  1076 PWs)   bands (ev):

    -7.8854  -7.8356  -6.9333  -6.8949  -0.0585  -0.0356   3.7873   4.1512
     7.8529   8.2564  13.7319  13.9189

          k = 0.0000-0.5793-0.1736 (  1084 PWs)   bands (ev):

    -7.8593  -7.8593  -6.9162  -6.9162  -0.0472  -0.0472   3.9860   3.9860
     7.9947   7.9947  13.8241  13.8241

          k = 0.0836 0.1448 0.0000 (  1077 PWs)   bands (ev):

   -12.7734 -12.5848  -1.4340   0.0244   1.6819   1.7003   2.3388   2.3522
    10.6117  15.0529  15.1382  16.3605

          k = 0.0836 0.1448 0.0868 (  1079 PWs)   bands (ev):

   -12.7467 -12.6134  -1.2483  -0.2248   1.6841   1.6974   2.3407   2.3502
    11.2200  14.7187  15.1286  15.1399

          k = 0.0836 0.1448-0.1736 (  1080 PWs)   bands (ev):

   -12.6811 -12.6811  -0.7673  -0.7673   1.6909   1.6909   2.3456   2.3456
    12.7976  12.7976  15.1102  15.1103

          k = 0.0836 0.2414 0.0000 (  1077 PWs)   bands (ev):

   -12.1149 -11.9346  -0.6384  -0.0473  -0.0059   0.7735   1.3194   1.3455
    11.4389  14.3860  14.6954  15.1696

          k = 0.0836 0.2414 0.0868 (  1075 PWs)   bands (ev):

   -12.0894 -11.9620  -0.4580  -0.0414  -0.0118   0.5334   1.3233   1.3416
    12.0256  14.4281  14.6247  15.1138

          k = 0.0836 0.2414-0.1736 (  1078 PWs)   bands (ev):

   -12.0266 -12.0266  -0.0289  -0.0289   0.0111   0.0111   1.3323   1.3323
    13.5330  13.5330  14.5450  14.5450

          k = 0.0836 0.3380 0.0000 (  1070 PWs)   bands (ev):

   -11.1378 -10.9696  -2.1471  -2.0801   0.4194   0.4542   0.5249   1.8541
    12.1139  12.6183  12.6702  14.9076

          k = 0.0836 0.3380 0.0868 (  1073 PWs)   bands (ev):

   -11.1140 -10.9950  -2.1374  -2.0901   0.4242   0.4488   0.6963   1.6303
    12.1596  12.5308  13.2514  14.9247

          k = 0.0836 0.3380-0.1736 (  1074 PWs)   bands (ev):

   -11.0553 -11.0553  -2.1138  -2.1138   0.4364   0.4364   1.1379   1.1379
    12.3336  12.3336  14.6012  14.6012

          k = 0.0836 0.4345 0.0000 (  1083 PWs)   bands (ev):

    -9.8598  -9.7075  -4.2983  -4.2078  -0.2236  -0.1854   1.9881   3.1592
     9.7904  10.4759  14.2510  14.6267

          k = 0.0836 0.4345 0.0868 (  1074 PWs)   bands (ev):

    -9.8381  -9.7304  -4.2852  -4.2211  -0.2180  -0.1908   2.1427   2.9676
     9.8693  10.3566  14.5838  14.7015

          k = 0.0836 0.4345-0.1736 (  1066 PWs)   bands (ev):

    -9.7849  -9.7849  -4.2533  -4.2533  -0.2046  -0.2046   2.5369   2.5369
    10.0934  10.0934  14.7098  14.7098

          k = 0.0836 0.5311 0.0000 (  1075 PWs)   bands (ev):

    -8.3459  -8.2196  -6.2707  -6.1682  -0.5561  -0.5158   3.4867   4.2407
     8.0638   8.6858  14.4265  14.7081

          k = 0.0836 0.5311 0.0868 (  1071 PWs)   bands (ev):

    -8.3278  -8.2384  -6.2562  -6.1837  -0.5501  -0.5217   3.6001   4.1369
     8.1083   8.5532  14.4663  14.6652

          k = 0.0836 0.5311-0.1736 (  1074 PWs)   bands (ev):

    -8.2834  -8.2834  -6.2205  -6.2205  -0.5359  -0.5359   3.8728   3.8728
     8.2880   8.2880  14.5638  14.5638

          k = 0.1672 0.2897 0.0000 (  1073 PWs)   bands (ev):

   -11.3000 -11.1299  -1.3701  -1.3377  -0.0659  -0.0423   0.3366   1.6834
    12.4719  12.6408  12.9780  16.3190

          k = 0.1672 0.2897 0.0868 (  1072 PWs)   bands (ev):

   -11.2759 -11.1556  -1.3653  -1.3423  -0.0629  -0.0460   0.5099   1.4560
    12.6890  12.9158  13.0402  16.0694

          k = 0.1672 0.2897-0.1736 (  1078 PWs)   bands (ev):

   -11.2166 -11.2166  -1.3538  -1.3538  -0.0549  -0.0549   0.9568   0.9568
    12.8061  12.8061  14.4568  14.4568

          k = 0.1672 0.3862 0.0000 (  1078 PWs)   bands (ev):

   -10.1774 -10.0211  -3.1259  -3.0616  -1.1419  -1.0980   1.6521   2.8868
    10.6142  11.0685  13.8969  16.5009

          k = 0.1672 0.3862 0.0868 (  1072 PWs)   bands (ev):

   -10.1552 -10.0447  -3.1164  -3.0711  -1.1357  -1.1044   1.8130   2.6815
    10.6766  10.9990  14.3933  16.4902

          k = 0.1672 0.3862-0.1736 (  1076 PWs)   bands (ev):

   -10.1006 -10.1006  -3.0939  -3.0939  -1.1204  -1.1204   2.2257   2.2257
    10.8345  10.8345  15.6138  15.6138

          k = 0.1672 0.4828 0.0000 (  1071 PWs)   bands (ev):

    -8.7790  -8.6414  -5.0724  -4.9802  -1.7237  -1.6688   3.1939   4.1989
     8.6379   9.2017  15.6673  16.2862

          k = 0.1672 0.4828 0.0868 (  1071 PWs)   bands (ev):

    -8.7594  -8.6621  -5.0592  -4.9938  -1.7158  -1.6768   3.3308   4.0406
     8.7039   9.1056  16.0104  16.3177

          k = 0.1672 0.4828-0.1736 (  1066 PWs)   bands (ev):

    -8.7113  -8.7113  -5.0267  -5.0267  -1.6965  -1.6965   3.6752   3.6752
     8.8905   8.8905  16.3723  16.3723

          k = 0.1672 0.5793 0.0000 (  1056 PWs)   bands (ev):

    -7.4742  -7.4069  -6.5237  -6.4753  -1.9093  -1.8522   4.3039   4.8013
     7.7427   8.0281  16.1794  16.5861

          k = 0.1672 0.5793 0.0868 (  1069 PWs)   bands (ev):

    -7.4634  -7.4157  -6.5186  -6.4842  -1.9015  -1.8609   4.3919   4.7492
     7.7358   7.9456  16.2219  16.5043

          k = 0.1672 0.5793-0.1736 (  1066 PWs)   bands (ev):

    -7.4384  -7.4384  -6.5032  -6.5032  -1.8814  -1.8814   4.5887   4.5887
     7.7973   7.7973  16.3384  16.3384

          k = 0.2509 0.4345 0.0000 (  1063 PWs)   bands (ev):

    -8.9307  -8.7905  -4.1411  -4.0949  -2.6520  -2.6172   3.0772   4.1596
     8.9952   9.4257  15.4780  17.6645

          k = 0.2509 0.4345 0.0868 (  1077 PWs)   bands (ev):

    -8.9108  -8.8116  -4.1343  -4.1016  -2.6477  -2.6230   3.2210   3.9838
     9.0582   9.3617  15.7926  17.1974

          k = 0.2509 0.4345-0.1736 (  1072 PWs)   bands (ev):

    -8.8617  -8.8617  -4.1176  -4.1176  -2.6361  -2.6361   3.5874   3.5874
     9.2102   9.2102  16.4736  16.4736

          k = 0.2509 0.5311 0.0000 (  1057 PWs)   bands (ev):

    -7.4758  -7.3612  -5.6012  -5.5227  -3.3755  -3.3143   4.6125   5.3688
     7.5014   7.8962  17.2925  18.1939

          k = 0.2509 0.5311 0.0868 (  1061 PWs)   bands (ev):

    -7.4593  -7.3783  -5.5899  -5.5345  -3.3669  -3.3238   4.7245   5.2628
     7.5442   7.8244  16.8375  17.0358

          k = 0.2509 0.5311-0.1736 (  1058 PWs)   bands (ev):

    -7.4191  -7.4191  -5.5624  -5.5624  -3.3457  -3.3457   4.9962   4.9962
     7.6709   7.6709  16.6871  16.6871

          k = 0.3345 0.5793 0.0000 (  1041 PWs)   bands (ev):

    -6.2412  -6.1807  -6.1807  -6.1237  -4.2856  -4.2856   5.9042   6.3555
     6.3555   6.8751  17.1077  17.1077

          k = 0.3345 0.5793 0.0868 (  1056 PWs)   bands (ev):

    -6.2244  -6.1803  -6.1803  -6.1413  -4.2868  -4.2868   6.0334   6.3644
     6.3644   6.7180  16.6750  16.6750

          k = 0.3345 0.5793-0.1736 (  1074 PWs)   bands (ev):

    -6.1834  -6.1834  -6.1800  -6.1800  -4.2879  -4.2879   6.3615   6.3615
     6.3730   6.3730  16.3890  16.3890

     the Fermi energy is     6.3649 ev

!    total energy              =     -72.46350917 Ry
     total all-electron energy =      -303.579620 Ry
     estimated scf accuracy    <          1.6E-10 Ry
     smearing contrib. (-TS)   =      -0.00042734 Ry
     internal energy E=F+TS    =     -72.46308183 Ry

     The total energy is F=E-TS. E is the sum of the following terms:
     one-electron contribution =     -14.78701682 Ry
     hartree contribution      =      15.38176684 Ry
     xc contribution           =     -18.34639734 Ry
     ewald contribution        =     -31.14931927 Ry
     one-center paw contrib.   =     -23.56211523 Ry

     convergence has been achieved in   8 iterations

     Forces acting on atoms (cartesian axes, Ry/au):

     atom    1 type  1   force =     0.00000000   -0.00000000    0.00000000
     atom    2 type  1   force =     0.00000000    0.00000000    0.00000000
     atom    3 type  1   force =     0.00000000   -0.00000000    0.00000000
     atom    4 type  1   force =     0.00000000    0.00000000    0.00000000

     Total force =     0.000000     Total SCF correction =     0.000000


     Computing stress (Cartesian axis) and pressure

          total   stress  (Ry/bohr**3)                   (kbar)     P=       -3.81
  -0.00001831   0.00000000   0.00000000           -2.69        0.00        0.00
   0.00000000  -0.00001831   0.00000000            0.00       -2.69        0.00
   0.00000000   0.00000000  -0.00004115            0.00        0.00       -6.05


     Writing all to output data dir ./temp/graphite.save/ :
     XML data file, charge density, pseudopotentials, collected wavefunctions

     init_run     :      0.79s CPU      0.82s WALL (       2 calls)
     electrons    :     28.91s CPU     31.32s WALL (      15 calls)
     update_pot   :      0.41s CPU      0.41s WALL (      13 calls)
     forces       :      1.02s CPU      1.04s WALL (      15 calls)
     stress       :      3.60s CPU      3.60s WALL (      15 calls)

     Called by init_run:
     wfcinit      :      0.30s CPU      0.32s WALL (       2 calls)
     potinit      :      0.17s CPU      0.17s WALL (       2 calls)
     hinit0       :      0.24s CPU      0.25s WALL (       2 calls)

     Called by electrons:
     c_bands      :     22.57s CPU     24.53s WALL (      78 calls)
     sum_band     :      3.89s CPU      4.29s WALL (      78 calls)
     v_of_rho     :      0.56s CPU      0.57s WALL (      86 calls)
     newd         :      0.50s CPU      0.51s WALL (      86 calls)
     PAW_pot      :      2.04s CPU      2.05s WALL (      99 calls)
     mix_rho      :      0.04s CPU      0.04s WALL (      78 calls)

     Called by c_bands:
     init_us_2    :      0.50s CPU      0.55s WALL (   11457 calls)
     cegterg      :     21.80s CPU     23.71s WALL (    4446 calls)

     Called by *egterg:
     cdiaghg      :      1.53s CPU      1.66s WALL (   13524 calls)
     h_psi        :     13.87s CPU     15.09s WALL (   14778 calls)
     s_psi        :      1.41s CPU      1.54s WALL (   14778 calls)
     g_psi        :      0.07s CPU      0.08s WALL (   10218 calls)

     Called by h_psi:
     h_psi:calbec :      1.80s CPU      1.97s WALL (   14778 calls)
     vloc_psi     :     10.53s CPU     11.45s WALL (   14778 calls)
     add_vuspsi   :      1.42s CPU      1.55s WALL (   14778 calls)

     General routines
     calbec       :      3.67s CPU      3.96s WALL (   24240 calls)
     fft          :      0.51s CPU      0.52s WALL (    1483 calls)
     ffts         :      0.11s CPU      0.11s WALL (     164 calls)
     fftw         :     10.57s CPU     11.54s WALL (  329364 calls)
     interpolate  :      0.14s CPU      0.14s WALL (      86 calls)

     Parallel routines

     PWSCF        :     35.45s CPU     37.95s WALL


   This run was terminated on:  20:53:59  25Dec2024            

=------------------------------------------------------------------------------=
   JOB DONE.
=------------------------------------------------------------------------------=
