
     Program PWSCF v.7.3.1 starts on 18Dec2025 at 19:51:16 

     This program is part of the open-source Quantum ESPRESSO suite
     for quantum simulation of materials; please cite
         "P. Giannozzi et al., J. Phys.:Condens. Matter 21 395502 (2009);
         "P. Giannozzi et al., J. Phys.:Condens. Matter 29 465901 (2017);
         "P. Giannozzi et al., J. Chem. Phys. 152 154105 (2020);
          URL http://www.quantum-espresso.org", 
     in publications or presentations arising from this work. More details at
     http://www.quantum-espresso.org/quote

     Parallel version (MPI), running on    14 processors

     MPI processes distributed on     1 nodes
     28614 MiB available memory on the printing compute node when the environment starts

     Reading input from al-3x3x3.vc-relax.pw.in

     Current dimensions of program PWSCF are:
     Max number of different atomic species (ntypx) = 10
     Max number of k-points (npk) = 120000
     Max angular momentum in pseudopotentials (lmaxx) =  4
     file Al.pbesol-n-kjpaw_psl.1.0.0.UPF: wavefunction(s)  3S 3P renormalized

     R & G space division:  proc/nbgrp/npool/nimage =      14
     Subspace diagonalization in iterative solution of the eigenvalue problem:
     one sub-group per band group will be used
     custom distributed-memory algorithm (size of sub-group:  2*  2 procs)


     Parallelization info
     --------------------
     sticks:   dense  smooth     PW     G-vecs:    dense   smooth      PW
     Min         941     470    124                81543    28826    3886
     Max         942     471    125                81546    28829    3889
     Sum       13181    6589   1741              1141629   403583   54435

     Using Slab Decomposition



     bravais-lattice index     =            1
     lattice parameter (alat)  =      22.7734  a.u.
     unit-cell volume          =   11810.9574 (a.u.)^3
     number of atoms/cell      =          107
     number of atomic types    =            1
     number of electrons       =       321.00
     number of Kohn-Sham states=          193
     kinetic-energy cutoff     =      40.0000  Ry
     charge density cutoff     =     320.0000  Ry
     scf convergence threshold =      1.0E-08
     mixing beta               =       0.7000
     number of iterations used =            8  plain     mixing
     energy convergence thresh.=      1.0E-05
     force convergence thresh. =      1.0E-04
     press convergence thresh. =      5.0E-02
     Exchange-correlation= SLA  PW   PSX  PSC
                           (   1   4  10   8   0   0   0)
     nstep                     =           50


     celldm(1)=  22.773426  celldm(2)=   0.000000  celldm(3)=   0.000000
     celldm(4)=   0.000000  celldm(5)=   0.000000  celldm(6)=   0.000000

     crystal axes: (cart. coord. in units of alat)
               a(1) = (   1.000000   0.000000   0.000000 )  
               a(2) = (   0.000000   1.000000   0.000000 )  
               a(3) = (   0.000000   0.000000   1.000000 )  

     reciprocal axes: (cart. coord. in units 2 pi/alat)
               b(1) = (  1.000000  0.000000  0.000000 )  
               b(2) = (  0.000000  1.000000  0.000000 )  
               b(3) = (  0.000000  0.000000  1.000000 )  


     PseudoPot. # 1 for Al read from file:
     ./../Al.pbesol-n-kjpaw_psl.1.0.0.UPF
     MD5 check sum: fed048700f41f568201cacb08e201ac8
     Pseudo is Projector augmented-wave + core cor, Zval =  3.0
     Generated using &quot;atomic&quot; code by A. Dal Corso  v.6.3
     Shape of augmentation charge: PSQ
     Using radial grid of 1135 points,  6 beta functions with: 
                l(1) =   0
                l(2) =   0
                l(3) =   1
                l(4) =   1
                l(5) =   2
                l(6) =   2
     Q(r) pseudized with 0 coefficients 


     atomic species   valence    mass     pseudopotential
     Al                3.00    27.00000     Al( 1.00)

     48 Sym. Ops., with inversion, found


                                    s                        frac. trans.

      isym =  1     identity                                     

 cryst.   s( 1) = (     1          0          0      )
                  (     0          1          0      )
                  (     0          0          1      )

 cart.    s( 1) = (  1.0000000  0.0000000  0.0000000 )
                  (  0.0000000  1.0000000  0.0000000 )
                  (  0.0000000  0.0000000  1.0000000 )


      isym =  2     180 deg rotation - cart. axis [0,0,1]        

 cryst.   s( 2) = (    -1          0          0      )
                  (     0         -1          0      )
                  (     0          0          1      )

 cart.    s( 2) = ( -1.0000000  0.0000000  0.0000000 )
                  (  0.0000000 -1.0000000  0.0000000 )
                  (  0.0000000  0.0000000  1.0000000 )


      isym =  3     180 deg rotation - cart. axis [0,1,0]        

 cryst.   s( 3) = (    -1          0          0      )
                  (     0          1          0      )
                  (     0          0         -1      )

 cart.    s( 3) = ( -1.0000000  0.0000000  0.0000000 )
                  (  0.0000000  1.0000000  0.0000000 )
                  (  0.0000000  0.0000000 -1.0000000 )


      isym =  4     180 deg rotation - cart. axis [1,0,0]        

 cryst.   s( 4) = (     1          0          0      )
                  (     0         -1          0      )
                  (     0          0         -1      )

 cart.    s( 4) = (  1.0000000  0.0000000  0.0000000 )
                  (  0.0000000 -1.0000000  0.0000000 )
                  (  0.0000000  0.0000000 -1.0000000 )


      isym =  5     180 deg rotation - cart. axis [1,1,0]        

 cryst.   s( 5) = (     0          1          0      )
                  (     1          0          0      )
                  (     0          0         -1      )

 cart.    s( 5) = (  0.0000000  1.0000000  0.0000000 )
                  (  1.0000000  0.0000000  0.0000000 )
                  (  0.0000000  0.0000000 -1.0000000 )


      isym =  6     180 deg rotation - cart. axis [1,-1,0]       

 cryst.   s( 6) = (     0         -1          0      )
                  (    -1          0          0      )
                  (     0          0         -1      )

 cart.    s( 6) = (  0.0000000 -1.0000000  0.0000000 )
                  ( -1.0000000  0.0000000  0.0000000 )
                  (  0.0000000  0.0000000 -1.0000000 )


      isym =  7      90 deg rotation - cart. axis [0,0,-1]       

 cryst.   s( 7) = (     0         -1          0      )
                  (     1          0          0      )
                  (     0          0          1      )

 cart.    s( 7) = (  0.0000000  1.0000000  0.0000000 )
                  ( -1.0000000  0.0000000  0.0000000 )
                  (  0.0000000  0.0000000  1.0000000 )


      isym =  8      90 deg rotation - cart. axis [0,0,1]        

 cryst.   s( 8) = (     0          1          0      )
                  (    -1          0          0      )
                  (     0          0          1      )

 cart.    s( 8) = (  0.0000000 -1.0000000  0.0000000 )
                  (  1.0000000  0.0000000  0.0000000 )
                  (  0.0000000  0.0000000  1.0000000 )


      isym =  9     180 deg rotation - cart. axis [1,0,1]        

 cryst.   s( 9) = (     0          0          1      )
                  (     0         -1          0      )
                  (     1          0          0      )

 cart.    s( 9) = (  0.0000000  0.0000000  1.0000000 )
                  (  0.0000000 -1.0000000  0.0000000 )
                  (  1.0000000  0.0000000  0.0000000 )


      isym = 10     180 deg rotation - cart. axis [-1,0,1]       

 cryst.   s(10) = (     0          0         -1      )
                  (     0         -1          0      )
                  (    -1          0          0      )

 cart.    s(10) = (  0.0000000  0.0000000 -1.0000000 )
                  (  0.0000000 -1.0000000  0.0000000 )
                  ( -1.0000000  0.0000000  0.0000000 )


      isym = 11      90 deg rotation - cart. axis [0,1,0]        

 cryst.   s(11) = (     0          0         -1      )
                  (     0          1          0      )
                  (     1          0          0      )

 cart.    s(11) = (  0.0000000  0.0000000  1.0000000 )
                  (  0.0000000  1.0000000  0.0000000 )
                  ( -1.0000000  0.0000000  0.0000000 )


      isym = 12      90 deg rotation - cart. axis [0,-1,0]       

 cryst.   s(12) = (     0          0          1      )
                  (     0          1          0      )
                  (    -1          0          0      )

 cart.    s(12) = (  0.0000000  0.0000000 -1.0000000 )
                  (  0.0000000  1.0000000  0.0000000 )
                  (  1.0000000  0.0000000  0.0000000 )


      isym = 13     180 deg rotation - cart. axis [0,1,1]        

 cryst.   s(13) = (    -1          0          0      )
                  (     0          0          1      )
                  (     0          1          0      )

 cart.    s(13) = ( -1.0000000  0.0000000  0.0000000 )
                  (  0.0000000  0.0000000  1.0000000 )
                  (  0.0000000  1.0000000  0.0000000 )


      isym = 14     180 deg rotation - cart. axis [0,1,-1]       

 cryst.   s(14) = (    -1          0          0      )
                  (     0          0         -1      )
                  (     0         -1          0      )

 cart.    s(14) = ( -1.0000000  0.0000000  0.0000000 )
                  (  0.0000000  0.0000000 -1.0000000 )
                  (  0.0000000 -1.0000000  0.0000000 )


      isym = 15      90 deg rotation - cart. axis [-1,0,0]       

 cryst.   s(15) = (     1          0          0      )
                  (     0          0         -1      )
                  (     0          1          0      )

 cart.    s(15) = (  1.0000000  0.0000000  0.0000000 )
                  (  0.0000000  0.0000000  1.0000000 )
                  (  0.0000000 -1.0000000  0.0000000 )


      isym = 16      90 deg rotation - cart. axis [1,0,0]        

 cryst.   s(16) = (     1          0          0      )
                  (     0          0          1      )
                  (     0         -1          0      )

 cart.    s(16) = (  1.0000000  0.0000000  0.0000000 )
                  (  0.0000000  0.0000000 -1.0000000 )
                  (  0.0000000  1.0000000  0.0000000 )


      isym = 17     120 deg rotation - cart. axis [-1,-1,-1]     

 cryst.   s(17) = (     0          0          1      )
                  (     1          0          0      )
                  (     0          1          0      )

 cart.    s(17) = (  0.0000000  1.0000000  0.0000000 )
                  (  0.0000000  0.0000000  1.0000000 )
                  (  1.0000000  0.0000000  0.0000000 )


      isym = 18     120 deg rotation - cart. axis [-1,1,1]       

 cryst.   s(18) = (     0          0         -1      )
                  (    -1          0          0      )
                  (     0          1          0      )

 cart.    s(18) = (  0.0000000 -1.0000000  0.0000000 )
                  (  0.0000000  0.0000000  1.0000000 )
                  ( -1.0000000  0.0000000  0.0000000 )


      isym = 19     120 deg rotation - cart. axis [1,1,-1]       

 cryst.   s(19) = (     0          0         -1      )
                  (     1          0          0      )
                  (     0         -1          0      )

 cart.    s(19) = (  0.0000000  1.0000000  0.0000000 )
                  (  0.0000000  0.0000000 -1.0000000 )
                  ( -1.0000000  0.0000000  0.0000000 )


      isym = 20     120 deg rotation - cart. axis [1,-1,1]       

 cryst.   s(20) = (     0          0          1      )
                  (    -1          0          0      )
                  (     0         -1          0      )

 cart.    s(20) = (  0.0000000 -1.0000000  0.0000000 )
                  (  0.0000000  0.0000000 -1.0000000 )
                  (  1.0000000  0.0000000  0.0000000 )


      isym = 21     120 deg rotation - cart. axis [1,1,1]        

 cryst.   s(21) = (     0          1          0      )
                  (     0          0          1      )
                  (     1          0          0      )

 cart.    s(21) = (  0.0000000  0.0000000  1.0000000 )
                  (  1.0000000  0.0000000  0.0000000 )
                  (  0.0000000  1.0000000  0.0000000 )


      isym = 22     120 deg rotation - cart. axis [-1,1,-1]      

 cryst.   s(22) = (     0         -1          0      )
                  (     0          0         -1      )
                  (     1          0          0      )

 cart.    s(22) = (  0.0000000  0.0000000  1.0000000 )
                  ( -1.0000000  0.0000000  0.0000000 )
                  (  0.0000000 -1.0000000  0.0000000 )


      isym = 23     120 deg rotation - cart. axis [1,-1,-1]      

 cryst.   s(23) = (     0         -1          0      )
                  (     0          0          1      )
                  (    -1          0          0      )

 cart.    s(23) = (  0.0000000  0.0000000 -1.0000000 )
                  ( -1.0000000  0.0000000  0.0000000 )
                  (  0.0000000  1.0000000  0.0000000 )


      isym = 24     120 deg rotation - cart. axis [-1,-1,1]      

 cryst.   s(24) = (     0          1          0      )
                  (     0          0         -1      )
                  (    -1          0          0      )

 cart.    s(24) = (  0.0000000  0.0000000 -1.0000000 )
                  (  1.0000000  0.0000000  0.0000000 )
                  (  0.0000000 -1.0000000  0.0000000 )


      isym = 25     inversion                                    

 cryst.   s(25) = (    -1          0          0      )
                  (     0         -1          0      )
                  (     0          0         -1      )

 cart.    s(25) = ( -1.0000000  0.0000000  0.0000000 )
                  (  0.0000000 -1.0000000  0.0000000 )
                  (  0.0000000  0.0000000 -1.0000000 )


      isym = 26     inv. 180 deg rotation - cart. axis [0,0,1]   

 cryst.   s(26) = (     1          0          0      )
                  (     0          1          0      )
                  (     0          0         -1      )

 cart.    s(26) = (  1.0000000  0.0000000  0.0000000 )
                  (  0.0000000  1.0000000  0.0000000 )
                  (  0.0000000  0.0000000 -1.0000000 )


      isym = 27     inv. 180 deg rotation - cart. axis [0,1,0]   

 cryst.   s(27) = (     1          0          0      )
                  (     0         -1          0      )
                  (     0          0          1      )

 cart.    s(27) = (  1.0000000  0.0000000  0.0000000 )
                  (  0.0000000 -1.0000000  0.0000000 )
                  (  0.0000000  0.0000000  1.0000000 )


      isym = 28     inv. 180 deg rotation - cart. axis [1,0,0]   

 cryst.   s(28) = (    -1          0          0      )
                  (     0          1          0      )
                  (     0          0          1      )

 cart.    s(28) = ( -1.0000000  0.0000000  0.0000000 )
                  (  0.0000000  1.0000000  0.0000000 )
                  (  0.0000000  0.0000000  1.0000000 )


      isym = 29     inv. 180 deg rotation - cart. axis [1,1,0]   

 cryst.   s(29) = (     0         -1          0      )
                  (    -1          0          0      )
                  (     0          0          1      )

 cart.    s(29) = (  0.0000000 -1.0000000  0.0000000 )
                  ( -1.0000000  0.0000000  0.0000000 )
                  (  0.0000000  0.0000000  1.0000000 )


      isym = 30     inv. 180 deg rotation - cart. axis [1,-1,0]  

 cryst.   s(30) = (     0          1          0      )
                  (     1          0          0      )
                  (     0          0          1      )

 cart.    s(30) = (  0.0000000  1.0000000  0.0000000 )
                  (  1.0000000  0.0000000  0.0000000 )
                  (  0.0000000  0.0000000  1.0000000 )


      isym = 31     inv.  90 deg rotation - cart. axis [0,0,-1]  

 cryst.   s(31) = (     0          1          0      )
                  (    -1          0          0      )
                  (     0          0         -1      )

 cart.    s(31) = (  0.0000000 -1.0000000  0.0000000 )
                  (  1.0000000  0.0000000  0.0000000 )
                  (  0.0000000  0.0000000 -1.0000000 )


      isym = 32     inv.  90 deg rotation - cart. axis [0,0,1]   

 cryst.   s(32) = (     0         -1          0      )
                  (     1          0          0      )
                  (     0          0         -1      )

 cart.    s(32) = (  0.0000000  1.0000000  0.0000000 )
                  ( -1.0000000  0.0000000  0.0000000 )
                  (  0.0000000  0.0000000 -1.0000000 )


      isym = 33     inv. 180 deg rotation - cart. axis [1,0,1]   

 cryst.   s(33) = (     0          0         -1      )
                  (     0          1          0      )
                  (    -1          0          0      )

 cart.    s(33) = (  0.0000000  0.0000000 -1.0000000 )
                  (  0.0000000  1.0000000  0.0000000 )
                  ( -1.0000000  0.0000000  0.0000000 )


      isym = 34     inv. 180 deg rotation - cart. axis [-1,0,1]  

 cryst.   s(34) = (     0          0          1      )
                  (     0          1          0      )
                  (     1          0          0      )

 cart.    s(34) = (  0.0000000  0.0000000  1.0000000 )
                  (  0.0000000  1.0000000  0.0000000 )
                  (  1.0000000  0.0000000  0.0000000 )


      isym = 35     inv.  90 deg rotation - cart. axis [0,1,0]   

 cryst.   s(35) = (     0          0          1      )
                  (     0         -1          0      )
                  (    -1          0          0      )

 cart.    s(35) = (  0.0000000  0.0000000 -1.0000000 )
                  (  0.0000000 -1.0000000  0.0000000 )
                  (  1.0000000  0.0000000  0.0000000 )


      isym = 36     inv.  90 deg rotation - cart. axis [0,-1,0]  

 cryst.   s(36) = (     0          0         -1      )
                  (     0         -1          0      )
                  (     1          0          0      )

 cart.    s(36) = (  0.0000000  0.0000000  1.0000000 )
                  (  0.0000000 -1.0000000  0.0000000 )
                  ( -1.0000000  0.0000000  0.0000000 )


      isym = 37     inv. 180 deg rotation - cart. axis [0,1,1]   

 cryst.   s(37) = (     1          0          0      )
                  (     0          0         -1      )
                  (     0         -1          0      )

 cart.    s(37) = (  1.0000000  0.0000000  0.0000000 )
                  (  0.0000000  0.0000000 -1.0000000 )
                  (  0.0000000 -1.0000000  0.0000000 )


      isym = 38     inv. 180 deg rotation - cart. axis [0,1,-1]  

 cryst.   s(38) = (     1          0          0      )
                  (     0          0          1      )
                  (     0          1          0      )

 cart.    s(38) = (  1.0000000  0.0000000  0.0000000 )
                  (  0.0000000  0.0000000  1.0000000 )
                  (  0.0000000  1.0000000  0.0000000 )


      isym = 39     inv.  90 deg rotation - cart. axis [-1,0,0]  

 cryst.   s(39) = (    -1          0          0      )
                  (     0          0          1      )
                  (     0         -1          0      )

 cart.    s(39) = ( -1.0000000  0.0000000  0.0000000 )
                  (  0.0000000  0.0000000 -1.0000000 )
                  (  0.0000000  1.0000000  0.0000000 )


      isym = 40     inv.  90 deg rotation - cart. axis [1,0,0]   

 cryst.   s(40) = (    -1          0          0      )
                  (     0          0         -1      )
                  (     0          1          0      )

 cart.    s(40) = ( -1.0000000  0.0000000  0.0000000 )
                  (  0.0000000  0.0000000  1.0000000 )
                  (  0.0000000 -1.0000000  0.0000000 )


      isym = 41     inv. 120 deg rotation - cart. axis [-1,-1,-1]

 cryst.   s(41) = (     0          0         -1      )
                  (    -1          0          0      )
                  (     0         -1          0      )

 cart.    s(41) = (  0.0000000 -1.0000000  0.0000000 )
                  (  0.0000000  0.0000000 -1.0000000 )
                  ( -1.0000000  0.0000000  0.0000000 )


      isym = 42     inv. 120 deg rotation - cart. axis [-1,1,1]  

 cryst.   s(42) = (     0          0          1      )
                  (     1          0          0      )
                  (     0         -1          0      )

 cart.    s(42) = (  0.0000000  1.0000000  0.0000000 )
                  (  0.0000000  0.0000000 -1.0000000 )
                  (  1.0000000  0.0000000  0.0000000 )


      isym = 43     inv. 120 deg rotation - cart. axis [1,1,-1]  

 cryst.   s(43) = (     0          0          1      )
                  (    -1          0          0      )
                  (     0          1          0      )

 cart.    s(43) = (  0.0000000 -1.0000000  0.0000000 )
                  (  0.0000000  0.0000000  1.0000000 )
                  (  1.0000000  0.0000000  0.0000000 )


      isym = 44     inv. 120 deg rotation - cart. axis [1,-1,1]  

 cryst.   s(44) = (     0          0         -1      )
                  (     1          0          0      )
                  (     0          1          0      )

 cart.    s(44) = (  0.0000000  1.0000000  0.0000000 )
                  (  0.0000000  0.0000000  1.0000000 )
                  ( -1.0000000  0.0000000  0.0000000 )


      isym = 45     inv. 120 deg rotation - cart. axis [1,1,1]   

 cryst.   s(45) = (     0         -1          0      )
                  (     0          0         -1      )
                  (    -1          0          0      )

 cart.    s(45) = (  0.0000000  0.0000000 -1.0000000 )
                  ( -1.0000000  0.0000000  0.0000000 )
                  (  0.0000000 -1.0000000  0.0000000 )


      isym = 46     inv. 120 deg rotation - cart. axis [-1,1,-1] 

 cryst.   s(46) = (     0          1          0      )
                  (     0          0          1      )
                  (    -1          0          0      )

 cart.    s(46) = (  0.0000000  0.0000000 -1.0000000 )
                  (  1.0000000  0.0000000  0.0000000 )
                  (  0.0000000  1.0000000  0.0000000 )


      isym = 47     inv. 120 deg rotation - cart. axis [1,-1,-1] 

 cryst.   s(47) = (     0          1          0      )
                  (     0          0         -1      )
                  (     1          0          0      )

 cart.    s(47) = (  0.0000000  0.0000000  1.0000000 )
                  (  1.0000000  0.0000000  0.0000000 )
                  (  0.0000000 -1.0000000  0.0000000 )


      isym = 48     inv. 120 deg rotation - cart. axis [-1,-1,1] 

 cryst.   s(48) = (     0         -1          0      )
                  (     0          0          1      )
                  (     1          0          0      )

 cart.    s(48) = (  0.0000000  0.0000000  1.0000000 )
                  ( -1.0000000  0.0000000  0.0000000 )
                  (  0.0000000  1.0000000  0.0000000 )


     point group O_h (m-3m) 
     there are 10 classes
     the character table:

       E     8C3   3C2   6C4   6C2'  i     8S6   3s_h  6S4   6s_d 
A_1g   1.00  1.00  1.00  1.00  1.00  1.00  1.00  1.00  1.00  1.00
A_2g   1.00  1.00  1.00 -1.00 -1.00  1.00  1.00  1.00 -1.00 -1.00
E_g    2.00 -1.00  2.00  0.00  0.00  2.00 -1.00  2.00  0.00  0.00
T_1g   3.00  0.00 -1.00  1.00 -1.00  3.00  0.00 -1.00  1.00 -1.00
T_2g   3.00  0.00 -1.00 -1.00  1.00  3.00  0.00 -1.00 -1.00  1.00
A_1u   1.00  1.00  1.00  1.00  1.00 -1.00 -1.00 -1.00 -1.00 -1.00
A_2u   1.00  1.00  1.00 -1.00 -1.00 -1.00 -1.00 -1.00  1.00  1.00
E_u    2.00 -1.00  2.00  0.00  0.00 -2.00  1.00 -2.00  0.00  0.00
T_1u   3.00  0.00 -1.00  1.00 -1.00 -3.00  0.00  1.00 -1.00  1.00
T_2u   3.00  0.00 -1.00 -1.00  1.00 -3.00  0.00  1.00  1.00 -1.00

     the symmetry operations in each class and the name of the first element:

     E        1
          identity                                               
     8C3     17   19   20   18   24   21   22   23
          120 deg rotation - cart. axis [-1,-1,-1]               
     3C2      2    4    3
          180 deg rotation - cart. axis [0,0,1]                  
     6C4      7    8   15   16   12   11
           90 deg rotation - cart. axis [0,0,-1]                 
     6C2'     5    6   14   13   10    9
          180 deg rotation - cart. axis [1,1,0]                  
     i       25
          inversion                                              
     8S6     41   43   44   42   48   45   46   47
          inv. 120 deg rotation - cart. axis [-1,-1,-1]          
     3s_h    26   28   27
          inv. 180 deg rotation - cart. axis [0,0,1]             
     6S4     31   32   39   40   36   35
          inv.  90 deg rotation - cart. axis [0,0,-1]            
     6s_d    29   30   38   37   34   33
          inv. 180 deg rotation - cart. axis [1,1,0]             

   Cartesian axes

     site n.     atom                  positions (alat units)
         1        Al     tau(   1) = (   0.0000000   0.0000000   0.3333333  )
         2        Al     tau(   2) = (   0.0000000   0.0000000   0.6666667  )
         3        Al     tau(   3) = (   0.0000000   0.3333333   0.0000000  )
         4        Al     tau(   4) = (   0.0000000   0.3333333   0.3333333  )
         5        Al     tau(   5) = (   0.0000000   0.3333333   0.6666667  )
         6        Al     tau(   6) = (   0.0000000   0.6666667   0.0000000  )
         7        Al     tau(   7) = (   0.0000000   0.6666667   0.3333333  )
         8        Al     tau(   8) = (   0.0000000   0.6666667   0.6666667  )
         9        Al     tau(   9) = (   0.3333333   0.0000000   0.0000000  )
        10        Al     tau(  10) = (   0.3333333   0.0000000   0.3333333  )
        11        Al     tau(  11) = (   0.3333333   0.0000000   0.6666667  )
        12        Al     tau(  12) = (   0.3333333   0.3333333   0.0000000  )
        13        Al     tau(  13) = (   0.3333333   0.3333333   0.3333333  )
        14        Al     tau(  14) = (   0.3333333   0.3333333   0.6666667  )
        15        Al     tau(  15) = (   0.3333333   0.6666667   0.0000000  )
        16        Al     tau(  16) = (   0.3333333   0.6666667   0.3333333  )
        17        Al     tau(  17) = (   0.3333333   0.6666667   0.6666667  )
        18        Al     tau(  18) = (   0.6666667   0.0000000   0.0000000  )
        19        Al     tau(  19) = (   0.6666667   0.0000000   0.3333333  )
        20        Al     tau(  20) = (   0.6666667   0.0000000   0.6666667  )
        21        Al     tau(  21) = (   0.6666667   0.3333333   0.0000000  )
        22        Al     tau(  22) = (   0.6666667   0.3333333   0.3333333  )
        23        Al     tau(  23) = (   0.6666667   0.3333333   0.6666667  )
        24        Al     tau(  24) = (   0.6666667   0.6666667   0.0000000  )
        25        Al     tau(  25) = (   0.6666667   0.6666667   0.3333333  )
        26        Al     tau(  26) = (   0.6666667   0.6666667   0.6666667  )
        27        Al     tau(  27) = (   0.0000000   0.1666667   0.1666667  )
        28        Al     tau(  28) = (   0.0000000   0.1666667   0.5000000  )
        29        Al     tau(  29) = (   0.0000000   0.1666667   0.8333333  )
        30        Al     tau(  30) = (   0.0000000   0.5000000   0.1666667  )
        31        Al     tau(  31) = (   0.0000000   0.5000000   0.5000000  )
        32        Al     tau(  32) = (   0.0000000   0.5000000   0.8333333  )
        33        Al     tau(  33) = (   0.0000000   0.8333333   0.1666667  )
        34        Al     tau(  34) = (   0.0000000   0.8333333   0.5000000  )
        35        Al     tau(  35) = (   0.0000000   0.8333333   0.8333333  )
        36        Al     tau(  36) = (   0.3333333   0.1666667   0.1666667  )
        37        Al     tau(  37) = (   0.3333333   0.1666667   0.5000000  )
        38        Al     tau(  38) = (   0.3333333   0.1666667   0.8333333  )
        39        Al     tau(  39) = (   0.3333333   0.5000000   0.1666667  )
        40        Al     tau(  40) = (   0.3333333   0.5000000   0.5000000  )
        41        Al     tau(  41) = (   0.3333333   0.5000000   0.8333333  )
        42        Al     tau(  42) = (   0.3333333   0.8333333   0.1666667  )
        43        Al     tau(  43) = (   0.3333333   0.8333333   0.5000000  )
        44        Al     tau(  44) = (   0.3333333   0.8333333   0.8333333  )
        45        Al     tau(  45) = (   0.6666667   0.1666667   0.1666667  )
        46        Al     tau(  46) = (   0.6666667   0.1666667   0.5000000  )
        47        Al     tau(  47) = (   0.6666667   0.1666667   0.8333333  )
        48        Al     tau(  48) = (   0.6666667   0.5000000   0.1666667  )
        49        Al     tau(  49) = (   0.6666667   0.5000000   0.5000000  )
        50        Al     tau(  50) = (   0.6666667   0.5000000   0.8333333  )
        51        Al     tau(  51) = (   0.6666667   0.8333333   0.1666667  )
        52        Al     tau(  52) = (   0.6666667   0.8333333   0.5000000  )
        53        Al     tau(  53) = (   0.6666667   0.8333333   0.8333333  )
        54        Al     tau(  54) = (   0.1666667   0.0000000   0.1666667  )
        55        Al     tau(  55) = (   0.1666667   0.0000000   0.5000000  )
        56        Al     tau(  56) = (   0.1666667   0.0000000   0.8333333  )
        57        Al     tau(  57) = (   0.1666667   0.3333333   0.1666667  )
        58        Al     tau(  58) = (   0.1666667   0.3333333   0.5000000  )
        59        Al     tau(  59) = (   0.1666667   0.3333333   0.8333333  )
        60        Al     tau(  60) = (   0.1666667   0.6666667   0.1666667  )
        61        Al     tau(  61) = (   0.1666667   0.6666667   0.5000000  )
        62        Al     tau(  62) = (   0.1666667   0.6666667   0.8333333  )
        63        Al     tau(  63) = (   0.5000000   0.0000000   0.1666667  )
        64        Al     tau(  64) = (   0.5000000   0.0000000   0.5000000  )
        65        Al     tau(  65) = (   0.5000000   0.0000000   0.8333333  )
        66        Al     tau(  66) = (   0.5000000   0.3333333   0.1666667  )
        67        Al     tau(  67) = (   0.5000000   0.3333333   0.5000000  )
        68        Al     tau(  68) = (   0.5000000   0.3333333   0.8333333  )
        69        Al     tau(  69) = (   0.5000000   0.6666667   0.1666667  )
        70        Al     tau(  70) = (   0.5000000   0.6666667   0.5000000  )
        71        Al     tau(  71) = (   0.5000000   0.6666667   0.8333333  )
        72        Al     tau(  72) = (   0.8333333   0.0000000   0.1666667  )
        73        Al     tau(  73) = (   0.8333333   0.0000000   0.5000000  )
        74        Al     tau(  74) = (   0.8333333   0.0000000   0.8333333  )
        75        Al     tau(  75) = (   0.8333333   0.3333333   0.1666667  )
        76        Al     tau(  76) = (   0.8333333   0.3333333   0.5000000  )
        77        Al     tau(  77) = (   0.8333333   0.3333333   0.8333333  )
        78        Al     tau(  78) = (   0.8333333   0.6666667   0.1666667  )
        79        Al     tau(  79) = (   0.8333333   0.6666667   0.5000000  )
        80        Al     tau(  80) = (   0.8333333   0.6666667   0.8333333  )
        81        Al     tau(  81) = (   0.1666667   0.1666667   0.0000000  )
        82        Al     tau(  82) = (   0.1666667   0.1666667   0.3333333  )
        83        Al     tau(  83) = (   0.1666667   0.1666667   0.6666667  )
        84        Al     tau(  84) = (   0.1666667   0.5000000   0.0000000  )
        85        Al     tau(  85) = (   0.1666667   0.5000000   0.3333333  )
        86        Al     tau(  86) = (   0.1666667   0.5000000   0.6666667  )
        87        Al     tau(  87) = (   0.1666667   0.8333333   0.0000000  )
        88        Al     tau(  88) = (   0.1666667   0.8333333   0.3333333  )
        89        Al     tau(  89) = (   0.1666667   0.8333333   0.6666667  )
        90        Al     tau(  90) = (   0.5000000   0.1666667   0.0000000  )
        91        Al     tau(  91) = (   0.5000000   0.1666667   0.3333333  )
        92        Al     tau(  92) = (   0.5000000   0.1666667   0.6666667  )
        93        Al     tau(  93) = (   0.5000000   0.5000000   0.0000000  )
        94        Al     tau(  94) = (   0.5000000   0.5000000   0.3333333  )
        95        Al     tau(  95) = (   0.5000000   0.5000000   0.6666667  )
        96        Al     tau(  96) = (   0.5000000   0.8333333   0.0000000  )
        97        Al     tau(  97) = (   0.5000000   0.8333333   0.3333333  )
        98        Al     tau(  98) = (   0.5000000   0.8333333   0.6666667  )
        99        Al     tau(  99) = (   0.8333333   0.1666667   0.0000000  )
       100        Al     tau( 100) = (   0.8333333   0.1666667   0.3333333  )
       101        Al     tau( 101) = (   0.8333333   0.1666667   0.6666667  )
       102        Al     tau( 102) = (   0.8333333   0.5000000   0.0000000  )
       103        Al     tau( 103) = (   0.8333333   0.5000000   0.3333333  )
       104        Al     tau( 104) = (   0.8333333   0.5000000   0.6666667  )
       105        Al     tau( 105) = (   0.8333333   0.8333333   0.0000000  )
       106        Al     tau( 106) = (   0.8333333   0.8333333   0.3333333  )
       107        Al     tau( 107) = (   0.8333333   0.8333333   0.6666667  )

   Crystallographic axes

     site n.     atom                  positions (cryst. coord.)
         1        Al     tau(   1) = (  0.0000000  0.0000000  0.3333333  )
         2        Al     tau(   2) = (  0.0000000  0.0000000  0.6666667  )
         3        Al     tau(   3) = (  0.0000000  0.3333333  0.0000000  )
         4        Al     tau(   4) = (  0.0000000  0.3333333  0.3333333  )
         5        Al     tau(   5) = (  0.0000000  0.3333333  0.6666667  )
         6        Al     tau(   6) = (  0.0000000  0.6666667  0.0000000  )
         7        Al     tau(   7) = (  0.0000000  0.6666667  0.3333333  )
         8        Al     tau(   8) = (  0.0000000  0.6666667  0.6666667  )
         9        Al     tau(   9) = (  0.3333333  0.0000000  0.0000000  )
        10        Al     tau(  10) = (  0.3333333  0.0000000  0.3333333  )
        11        Al     tau(  11) = (  0.3333333  0.0000000  0.6666667  )
        12        Al     tau(  12) = (  0.3333333  0.3333333  0.0000000  )
        13        Al     tau(  13) = (  0.3333333  0.3333333  0.3333333  )
        14        Al     tau(  14) = (  0.3333333  0.3333333  0.6666667  )
        15        Al     tau(  15) = (  0.3333333  0.6666667  0.0000000  )
        16        Al     tau(  16) = (  0.3333333  0.6666667  0.3333333  )
        17        Al     tau(  17) = (  0.3333333  0.6666667  0.6666667  )
        18        Al     tau(  18) = (  0.6666667  0.0000000  0.0000000  )
        19        Al     tau(  19) = (  0.6666667  0.0000000  0.3333333  )
        20        Al     tau(  20) = (  0.6666667  0.0000000  0.6666667  )
        21        Al     tau(  21) = (  0.6666667  0.3333333  0.0000000  )
        22        Al     tau(  22) = (  0.6666667  0.3333333  0.3333333  )
        23        Al     tau(  23) = (  0.6666667  0.3333333  0.6666667  )
        24        Al     tau(  24) = (  0.6666667  0.6666667  0.0000000  )
        25        Al     tau(  25) = (  0.6666667  0.6666667  0.3333333  )
        26        Al     tau(  26) = (  0.6666667  0.6666667  0.6666667  )
        27        Al     tau(  27) = (  0.0000000  0.1666667  0.1666667  )
        28        Al     tau(  28) = (  0.0000000  0.1666667  0.5000000  )
        29        Al     tau(  29) = (  0.0000000  0.1666667  0.8333333  )
        30        Al     tau(  30) = (  0.0000000  0.5000000  0.1666667  )
        31        Al     tau(  31) = (  0.0000000  0.5000000  0.5000000  )
        32        Al     tau(  32) = (  0.0000000  0.5000000  0.8333333  )
        33        Al     tau(  33) = (  0.0000000  0.8333333  0.1666667  )
        34        Al     tau(  34) = (  0.0000000  0.8333333  0.5000000  )
        35        Al     tau(  35) = (  0.0000000  0.8333333  0.8333333  )
        36        Al     tau(  36) = (  0.3333333  0.1666667  0.1666667  )
        37        Al     tau(  37) = (  0.3333333  0.1666667  0.5000000  )
        38        Al     tau(  38) = (  0.3333333  0.1666667  0.8333333  )
        39        Al     tau(  39) = (  0.3333333  0.5000000  0.1666667  )
        40        Al     tau(  40) = (  0.3333333  0.5000000  0.5000000  )
        41        Al     tau(  41) = (  0.3333333  0.5000000  0.8333333  )
        42        Al     tau(  42) = (  0.3333333  0.8333333  0.1666667  )
        43        Al     tau(  43) = (  0.3333333  0.8333333  0.5000000  )
        44        Al     tau(  44) = (  0.3333333  0.8333333  0.8333333  )
        45        Al     tau(  45) = (  0.6666667  0.1666667  0.1666667  )
        46        Al     tau(  46) = (  0.6666667  0.1666667  0.5000000  )
        47        Al     tau(  47) = (  0.6666667  0.1666667  0.8333333  )
        48        Al     tau(  48) = (  0.6666667  0.5000000  0.1666667  )
        49        Al     tau(  49) = (  0.6666667  0.5000000  0.5000000  )
        50        Al     tau(  50) = (  0.6666667  0.5000000  0.8333333  )
        51        Al     tau(  51) = (  0.6666667  0.8333333  0.1666667  )
        52        Al     tau(  52) = (  0.6666667  0.8333333  0.5000000  )
        53        Al     tau(  53) = (  0.6666667  0.8333333  0.8333333  )
        54        Al     tau(  54) = (  0.1666667  0.0000000  0.1666667  )
        55        Al     tau(  55) = (  0.1666667  0.0000000  0.5000000  )
        56        Al     tau(  56) = (  0.1666667  0.0000000  0.8333333  )
        57        Al     tau(  57) = (  0.1666667  0.3333333  0.1666667  )
        58        Al     tau(  58) = (  0.1666667  0.3333333  0.5000000  )
        59        Al     tau(  59) = (  0.1666667  0.3333333  0.8333333  )
        60        Al     tau(  60) = (  0.1666667  0.6666667  0.1666667  )
        61        Al     tau(  61) = (  0.1666667  0.6666667  0.5000000  )
        62        Al     tau(  62) = (  0.1666667  0.6666667  0.8333333  )
        63        Al     tau(  63) = (  0.5000000  0.0000000  0.1666667  )
        64        Al     tau(  64) = (  0.5000000  0.0000000  0.5000000  )
        65        Al     tau(  65) = (  0.5000000  0.0000000  0.8333333  )
        66        Al     tau(  66) = (  0.5000000  0.3333333  0.1666667  )
        67        Al     tau(  67) = (  0.5000000  0.3333333  0.5000000  )
        68        Al     tau(  68) = (  0.5000000  0.3333333  0.8333333  )
        69        Al     tau(  69) = (  0.5000000  0.6666667  0.1666667  )
        70        Al     tau(  70) = (  0.5000000  0.6666667  0.5000000  )
        71        Al     tau(  71) = (  0.5000000  0.6666667  0.8333333  )
        72        Al     tau(  72) = (  0.8333333  0.0000000  0.1666667  )
        73        Al     tau(  73) = (  0.8333333  0.0000000  0.5000000  )
        74        Al     tau(  74) = (  0.8333333  0.0000000  0.8333333  )
        75        Al     tau(  75) = (  0.8333333  0.3333333  0.1666667  )
        76        Al     tau(  76) = (  0.8333333  0.3333333  0.5000000  )
        77        Al     tau(  77) = (  0.8333333  0.3333333  0.8333333  )
        78        Al     tau(  78) = (  0.8333333  0.6666667  0.1666667  )
        79        Al     tau(  79) = (  0.8333333  0.6666667  0.5000000  )
        80        Al     tau(  80) = (  0.8333333  0.6666667  0.8333333  )
        81        Al     tau(  81) = (  0.1666667  0.1666667  0.0000000  )
        82        Al     tau(  82) = (  0.1666667  0.1666667  0.3333333  )
        83        Al     tau(  83) = (  0.1666667  0.1666667  0.6666667  )
        84        Al     tau(  84) = (  0.1666667  0.5000000  0.0000000  )
        85        Al     tau(  85) = (  0.1666667  0.5000000  0.3333333  )
        86        Al     tau(  86) = (  0.1666667  0.5000000  0.6666667  )
        87        Al     tau(  87) = (  0.1666667  0.8333333  0.0000000  )
        88        Al     tau(  88) = (  0.1666667  0.8333333  0.3333333  )
        89        Al     tau(  89) = (  0.1666667  0.8333333  0.6666667  )
        90        Al     tau(  90) = (  0.5000000  0.1666667  0.0000000  )
        91        Al     tau(  91) = (  0.5000000  0.1666667  0.3333333  )
        92        Al     tau(  92) = (  0.5000000  0.1666667  0.6666667  )
        93        Al     tau(  93) = (  0.5000000  0.5000000  0.0000000  )
        94        Al     tau(  94) = (  0.5000000  0.5000000  0.3333333  )
        95        Al     tau(  95) = (  0.5000000  0.5000000  0.6666667  )
        96        Al     tau(  96) = (  0.5000000  0.8333333  0.0000000  )
        97        Al     tau(  97) = (  0.5000000  0.8333333  0.3333333  )
        98        Al     tau(  98) = (  0.5000000  0.8333333  0.6666667  )
        99        Al     tau(  99) = (  0.8333333  0.1666667  0.0000000  )
       100        Al     tau( 100) = (  0.8333333  0.1666667  0.3333333  )
       101        Al     tau( 101) = (  0.8333333  0.1666667  0.6666667  )
       102        Al     tau( 102) = (  0.8333333  0.5000000  0.0000000  )
       103        Al     tau( 103) = (  0.8333333  0.5000000  0.3333333  )
       104        Al     tau( 104) = (  0.8333333  0.5000000  0.6666667  )
       105        Al     tau( 105) = (  0.8333333  0.8333333  0.0000000  )
       106        Al     tau( 106) = (  0.8333333  0.8333333  0.3333333  )
       107        Al     tau( 107) = (  0.8333333  0.8333333  0.6666667  )

     number of k points=     4  Fermi-Dirac smearing, width (Ry)=  0.0005
                       cart. coord. in units 2pi/alat
        k(    1) = (   0.0000000   0.0000000   0.0000000), wk =   0.0740741
        k(    2) = (   0.0000000   0.0000000   0.3333333), wk =   0.4444444
        k(    3) = (   0.0000000   0.3333333   0.3333333), wk =   0.8888889
        k(    4) = (   0.3333333   0.3333333   0.3333333), wk =   0.5925926

                       cryst. coord.
        k(    1) = (   0.0000000   0.0000000   0.0000000), wk =   0.0740741
        k(    2) = (   0.0000000   0.0000000   0.3333333), wk =   0.4444444
        k(    3) = (   0.0000000   0.3333333   0.3333333), wk =   0.8888889
        k(    4) = (   0.3333333   0.3333333   0.3333333), wk =   0.5925926

     Dense  grid:  1141629 G-vectors     FFT dimensions: ( 135, 135, 135)

     Smooth grid:   403583 G-vectors     FFT dimensions: (  96,  96,  96)

     Dynamical RAM for                 wfc:      10.61 MB

     Dynamical RAM for     wfc (w. buffer):      53.07 MB

     Dynamical RAM for           str. fact:       1.24 MB

     Dynamical RAM for           local pot:       0.00 MB

     Dynamical RAM for          nlocal pot:     105.92 MB

     Dynamical RAM for                qrad:       2.87 MB

     Dynamical RAM for          rho,v,vnew:       7.90 MB

     Dynamical RAM for               rhoin:       2.63 MB

     Dynamical RAM for            rho*nmix:      19.91 MB

     Dynamical RAM for           G-vectors:       4.89 MB

     Dynamical RAM for          h,s,v(r/c):       1.71 MB

     Dynamical RAM for          <psi|beta>:       5.67 MB

     Dynamical RAM for                 psi:      21.23 MB

     Dynamical RAM for                hpsi:      21.23 MB

     Dynamical RAM for                spsi:      21.23 MB

     Dynamical RAM for      wfcinit/wfcrot:      51.27 MB

     Dynamical RAM for           addusdens:     364.57 MB

     Dynamical RAM for          addusforce:     629.40 MB

     Dynamical RAM for         addusstress:     250.10 MB

     Estimated static dynamical RAM per process >     187.97 MB

     Estimated max dynamical RAM per process >     837.28 MB

     Estimated total dynamical RAM >      11.45 GB

     Initial potential from superposition of free atoms

     starting charge     320.7660, renormalised to     321.0000
     Starting wfcs are  428 randomized atomic wfcs
     Checking if some PAW data can be deallocated... 

     total cpu time spent up to now is      188.2 secs

     Self-consistent Calculation

     iteration #  1     ecut=    40.00 Ry     beta= 0.70
     Davidson diagonalization with overlap

---- Real-time Memory Report at c_bands before calling an iterative solver
           435 MiB given to the printing process from OS
             0 MiB allocation reported by mallinfo(arena+hblkhd)
         25952 MiB available memory on the node where the printing process lives
------------------
     ethr =  1.00E-02,  avg # of iterations =  4.0

     Threshold (ethr) on eigenvalues was too large:
     Diagonalizing with lowered threshold

     Davidson diagonalization with overlap

---- Real-time Memory Report at c_bands before calling an iterative solver
           602 MiB given to the printing process from OS
             0 MiB allocation reported by mallinfo(arena+hblkhd)
         23685 MiB available memory on the node where the printing process lives
------------------
     ethr =  2.00E-04,  avg # of iterations =  5.5

     total cpu time spent up to now is      794.4 secs

     total energy              =   -4121.00759545 Ry
     estimated scf accuracy    <       0.69196521 Ry

     iteration #  2     ecut=    40.00 Ry     beta= 0.70
     Davidson diagonalization with overlap

---- Real-time Memory Report at c_bands before calling an iterative solver
           602 MiB given to the printing process from OS
             0 MiB allocation reported by mallinfo(arena+hblkhd)
         24850 MiB available memory on the node where the printing process lives
------------------
     ethr =  2.16E-04,  avg # of iterations =  7.0

     total cpu time spent up to now is     1104.2 secs

     total energy              =   -4120.29937420 Ry
     estimated scf accuracy    <       6.41078550 Ry

     iteration #  3     ecut=    40.00 Ry     beta= 0.70
     Davidson diagonalization with overlap

---- Real-time Memory Report at c_bands before calling an iterative solver
           607 MiB given to the printing process from OS
             0 MiB allocation reported by mallinfo(arena+hblkhd)
         24731 MiB available memory on the node where the printing process lives
------------------
     ethr =  2.16E-04,  avg # of iterations =  4.8

     total cpu time spent up to now is     1410.0 secs

     total energy              =   -4120.80801606 Ry
     estimated scf accuracy    <       3.13077688 Ry

     iteration #  4     ecut=    40.00 Ry     beta= 0.70
     Davidson diagonalization with overlap

---- Real-time Memory Report at c_bands before calling an iterative solver
           608 MiB given to the printing process from OS
             0 MiB allocation reported by mallinfo(arena+hblkhd)
         24751 MiB available memory on the node where the printing process lives
------------------
     ethr =  2.16E-04,  avg # of iterations =  3.8

     total cpu time spent up to now is     1687.2 secs

     total energy              =   -4120.96750432 Ry
     estimated scf accuracy    <       1.30939669 Ry

     iteration #  5     ecut=    40.00 Ry     beta= 0.70
     Davidson diagonalization with overlap

---- Real-time Memory Report at c_bands before calling an iterative solver
           609 MiB given to the printing process from OS
             0 MiB allocation reported by mallinfo(arena+hblkhd)
         24284 MiB available memory on the node where the printing process lives
------------------
     ethr =  2.16E-04,  avg # of iterations =  2.0

     total cpu time spent up to now is     1935.6 secs

     total energy              =   -4121.09110598 Ry
     estimated scf accuracy    <       0.08941041 Ry

     iteration #  6     ecut=    40.00 Ry     beta= 0.70
     Davidson diagonalization with overlap

---- Real-time Memory Report at c_bands before calling an iterative solver
           610 MiB given to the printing process from OS
             0 MiB allocation reported by mallinfo(arena+hblkhd)
         24337 MiB available memory on the node where the printing process lives
------------------
     ethr =  2.79E-05,  avg # of iterations =  4.0

     total cpu time spent up to now is     2195.6 secs

     total energy              =   -4121.10873638 Ry
     estimated scf accuracy    <       0.00969571 Ry

     iteration #  7     ecut=    40.00 Ry     beta= 0.70
     Davidson diagonalization with overlap

---- Real-time Memory Report at c_bands before calling an iterative solver
           611 MiB given to the printing process from OS
             0 MiB allocation reported by mallinfo(arena+hblkhd)
         24370 MiB available memory on the node where the printing process lives
------------------
     c_bands:  1 eigenvalues not converged
     ethr =  3.02E-06,  avg # of iterations = 11.5

     total cpu time spent up to now is     2533.2 secs

     total energy              =   -4121.11196603 Ry
     estimated scf accuracy    <       0.00103122 Ry

     iteration #  8     ecut=    40.00 Ry     beta= 0.70
     Davidson diagonalization with overlap

---- Real-time Memory Report at c_bands before calling an iterative solver
           612 MiB given to the printing process from OS
             0 MiB allocation reported by mallinfo(arena+hblkhd)
         24145 MiB available memory on the node where the printing process lives
------------------
     ethr =  3.21E-07,  avg # of iterations =  5.8

     total cpu time spent up to now is     2804.4 secs

     total energy              =   -4121.11218057 Ry
     estimated scf accuracy    <       0.00016947 Ry

     iteration #  9     ecut=    40.00 Ry     beta= 0.70
     Davidson diagonalization with overlap

---- Real-time Memory Report at c_bands before calling an iterative solver
           613 MiB given to the printing process from OS
             0 MiB allocation reported by mallinfo(arena+hblkhd)
         24259 MiB available memory on the node where the printing process lives
------------------
     ethr =  5.28E-08,  avg # of iterations =  5.0

     total cpu time spent up to now is     3087.5 secs

     total energy              =   -4121.11222841 Ry
     estimated scf accuracy    <       0.00000615 Ry

     iteration # 10     ecut=    40.00 Ry     beta= 0.70
     Davidson diagonalization with overlap

---- Real-time Memory Report at c_bands before calling an iterative solver
           615 MiB given to the printing process from OS
             0 MiB allocation reported by mallinfo(arena+hblkhd)
         24113 MiB available memory on the node where the printing process lives
------------------
     ethr =  1.92E-09,  avg # of iterations =  7.5

     total cpu time spent up to now is     3479.4 secs

     total energy              =   -4121.11223331 Ry
     estimated scf accuracy    <       0.00001246 Ry

     iteration # 11     ecut=    40.00 Ry     beta= 0.70
     Davidson diagonalization with overlap

---- Real-time Memory Report at c_bands before calling an iterative solver
           616 MiB given to the printing process from OS
             0 MiB allocation reported by mallinfo(arena+hblkhd)
         24296 MiB available memory on the node where the printing process lives
------------------
     ethr =  1.92E-09,  avg # of iterations =  2.0

     total cpu time spent up to now is     3728.2 secs

     total energy              =   -4121.11223423 Ry
     estimated scf accuracy    <       0.00000191 Ry

     iteration # 12     ecut=    40.00 Ry     beta= 0.70
     Davidson diagonalization with overlap

---- Real-time Memory Report at c_bands before calling an iterative solver
           616 MiB given to the printing process from OS
             0 MiB allocation reported by mallinfo(arena+hblkhd)
         24317 MiB available memory on the node where the printing process lives
------------------
     ethr =  5.96E-10,  avg # of iterations =  3.8

     total cpu time spent up to now is     3962.4 secs

     total energy              =   -4121.11223436 Ry
     estimated scf accuracy    <       0.00000041 Ry

     iteration # 13     ecut=    40.00 Ry     beta= 0.70
     Davidson diagonalization with overlap

---- Real-time Memory Report at c_bands before calling an iterative solver
           616 MiB given to the printing process from OS
             0 MiB allocation reported by mallinfo(arena+hblkhd)
         24219 MiB available memory on the node where the printing process lives
------------------
     c_bands:  1 eigenvalues not converged
     ethr =  1.27E-10,  avg # of iterations =  8.8

     total cpu time spent up to now is     4260.7 secs

     total energy              =   -4121.11223444 Ry
     estimated scf accuracy    <       0.00000032 Ry

     iteration # 14     ecut=    40.00 Ry     beta= 0.70
     Davidson diagonalization with overlap

---- Real-time Memory Report at c_bands before calling an iterative solver
           616 MiB given to the printing process from OS
             0 MiB allocation reported by mallinfo(arena+hblkhd)
         24139 MiB available memory on the node where the printing process lives
------------------
     ethr =  9.98E-11,  avg # of iterations =  4.5

     total cpu time spent up to now is     4481.9 secs

     total energy              =   -4121.11223446 Ry
     estimated scf accuracy    <       0.00000002 Ry

     iteration # 15     ecut=    40.00 Ry     beta= 0.70
     Davidson diagonalization with overlap

---- Real-time Memory Report at c_bands before calling an iterative solver
           616 MiB given to the printing process from OS
             0 MiB allocation reported by mallinfo(arena+hblkhd)
         24196 MiB available memory on the node where the printing process lives
------------------
     ethr =  7.31E-12,  avg # of iterations =  4.8

     total cpu time spent up to now is     4755.6 secs

     End of self-consistent calculation

          k = 0.0000 0.0000 0.0000 ( 50541 PWs)   bands (ev):

    -3.2999  -2.3194  -2.3194  -2.3052  -2.3052  -2.3052  -2.1457  -1.3145
    -1.3145  -1.3145  -1.3095  -1.3095  -1.3095  -1.3080  -1.3080  -1.2530
    -1.2530  -1.2530  -0.9634  -0.3128  -0.3042  -0.3042  -0.3042  -0.2600
    -0.2600  -0.2600  -0.0463   0.6926   0.6926   0.7224   0.7224   0.7224
     0.8186   1.6628   1.6628   1.6628   1.6646   1.6652   1.6652   1.6652
     1.6652   1.6652   1.6695   1.6695   1.6695   1.6705   1.6705   1.6705
     1.6948   1.6948   1.6948   1.7093   1.7093   1.8465   1.8465   1.8465
     2.0976   2.6407   2.6407   2.6410   2.6410   2.6410   2.6454   2.6454
     2.6454   2.6457   2.6457   2.6457   2.6486   2.6486   2.6486   2.6590
     2.6713   2.6713   2.6990   2.6990   2.6990   2.9000   2.9000   2.9000
     3.4567   4.5845   4.5845   4.5845   4.5933   4.5933   4.6144   4.6144
     4.6144   4.6696   4.6696   4.6696   4.7653   5.0100   5.0100   5.0100
     5.5635   5.5635   5.5635   5.5641   5.5641   5.5641   5.5647   5.5647
     5.5663   5.5663   5.5663   5.5763   5.5763   5.5763   5.5774   5.5774
     5.5974   5.6731   5.6731   5.6731   5.7018   5.7018   5.7018   5.8903
     5.8903   5.8903   5.8918   5.8918   5.8918   5.9302   5.9302   5.9302
     5.9975   6.1670   6.1670   6.1670   6.3514   6.3514   6.4897   6.8203
     6.8203   6.8293   6.8293   6.8293   6.8331   6.8803   6.8803   6.8803
     7.0555   7.0555   7.0555   7.2608   7.2608   7.2627   7.2670   7.2670
     7.2670   7.3415   7.3415   7.3415   7.4192   7.4192   7.5736   8.3431
     8.3431   8.3431   8.3555   8.3555   8.3555   8.3633   8.3633   8.3633
     8.4085   8.4525   8.4656   8.4656   8.4677   8.4677   8.4677   8.4876
     8.4876   8.4876   8.6962   8.6962   8.6962   8.7048   8.7048   8.7048
     8.7908   8.7908   8.7908   8.8674   8.8674   8.8674   9.0061   9.6278
     9.6287

     occupation numbers 
     1.0000   1.0000   1.0000   1.0000   1.0000   1.0000   1.0000   1.0000
     1.0000   1.0000   1.0000   1.0000   1.0000   1.0000   1.0000   1.0000
     1.0000   1.0000   1.0000   1.0000   1.0000   1.0000   1.0000   1.0000
     1.0000   1.0000   1.0000   1.0000   1.0000   1.0000   1.0000   1.0000
     1.0000   1.0000   1.0000   1.0000   1.0000   1.0000   1.0000   1.0000
     1.0000   1.0000   1.0000   1.0000   1.0000   1.0000   1.0000   1.0000
     1.0000   1.0000   1.0000   1.0000   1.0000   1.0000   1.0000   1.0000
     1.0000   1.0000   1.0000   1.0000   1.0000   1.0000   1.0000   1.0000
     1.0000   1.0000   1.0000   1.0000   1.0000   1.0000   1.0000   1.0000
     1.0000   1.0000   1.0000   1.0000   1.0000   1.0000   1.0000   1.0000
     1.0000   1.0000   1.0000   1.0000   1.0000   1.0000   1.0000   1.0000
     1.0000   1.0000   1.0000   1.0000   1.0000   1.0000   1.0000   1.0000
     1.0000   1.0000   1.0000   1.0000   1.0000   1.0000   1.0000   1.0000
     1.0000   1.0000   1.0000   1.0000   1.0000   1.0000   1.0000   1.0000
     1.0000   1.0000   1.0000   1.0000   1.0000   1.0000   1.0000   1.0000
     1.0000   1.0000   1.0000   1.0000   1.0000   1.0000   1.0000   1.0000
     1.0000   1.0000   1.0000   1.0000   1.0000   1.0000   1.0000   1.0000
     1.0000   1.0000   1.0000   1.0000   1.0000   1.0000   1.0000   1.0000
     1.0000   1.0000   1.0000   1.0000   1.0000   1.0000   1.0000   1.0000
     1.0000   1.0000   1.0000   1.0000   1.0000   1.0000   1.0000   0.0000
     0.0000   0.0000   0.0000   0.0000   0.0000   0.0000   0.0000   0.0000
     0.0000   0.0000   0.0000   0.0000   0.0000   0.0000   0.0000   0.0000
     0.0000   0.0000   0.0000   0.0000   0.0000   0.0000   0.0000   0.0000
     0.0000   0.0000   0.0000   0.0000   0.0000   0.0000   0.0000   0.0000
     0.0000

          k = 0.0000 0.0000 0.3333 ( 50518 PWs)   bands (ev):

    -3.1888  -2.8475  -2.2070  -2.1933  -2.1933  -2.1083  -1.8704  -1.8559
    -1.8559  -1.7331  -1.4932  -1.1980  -1.1734  -1.1734  -1.0964  -0.8636
    -0.8364  -0.8364  -0.7409  -0.5323  -0.5165  -0.5165  -0.4881  -0.3134
     0.4625   0.4649   0.4729   0.4729   0.4914   0.4914   0.5645   0.6212
     0.8023   0.8312   0.8312   0.9031   1.1321   1.1623   1.1623   1.2176
     1.4521   1.4774   1.4774   1.5985   1.7743   1.7755   1.7755   1.7887
     1.8031   1.8586   1.8586   1.9153   2.1011   2.1023   2.1023   2.1161
     2.1331   2.1356   2.2218   2.2218   2.3607   2.4418   2.4920   2.4920
     2.6649   3.0707   3.0849   3.0849   3.2090   3.3886   3.3899   3.3899
     3.3990   3.4153   3.4197   3.4316   3.4316   3.4854   3.5297   3.5297
     3.6778   3.7488   4.0248   4.0641   4.0641   4.2706   4.4023   4.4044
     4.4044   4.4145   4.4334   4.4821   4.4821   4.5541   4.6386   4.6543
     4.6543   4.7069   4.7343   4.7343   4.7683   4.9066   5.0675   5.0675
     5.0925   5.1482   5.1482   5.2482   5.4395   5.4395   5.6356   5.6592
     5.6592   5.9214   5.9427   5.9602   5.9602   5.9954   6.0191   6.0396
     6.0797   6.0797   6.3063   6.3155   6.3354   6.3354   6.3568   6.3756
     6.4535   6.4535   6.4568   6.5133   6.6966   6.6966   6.7843   6.8286
     6.9310   6.9323   6.9323   6.9445   6.9642   7.0628   7.0628   7.1282
     7.2057   7.2057   7.2320   7.3072   7.3312   7.3319   7.3319   7.3643
     7.5515   7.5818   7.5887   7.5887   7.7389   7.7389   7.7693   7.7888
     7.7888   7.8060   7.8383   7.8411   7.8411   7.8519   7.9525   7.9861
     8.1998   8.4530   8.4541   8.4541   8.4670   8.4679   8.4871   8.4871
     8.4873   8.5244   8.6717   8.6717   8.6765   8.6989   8.6989   8.7799
     8.8003   8.8691   8.8759   8.8927   8.8927   9.1005   9.1011   9.1127
     9.1545

     occupation numbers 
     1.0000   1.0000   1.0000   1.0000   1.0000   1.0000   1.0000   1.0000
     1.0000   1.0000   1.0000   1.0000   1.0000   1.0000   1.0000   1.0000
     1.0000   1.0000   1.0000   1.0000   1.0000   1.0000   1.0000   1.0000
     1.0000   1.0000   1.0000   1.0000   1.0000   1.0000   1.0000   1.0000
     1.0000   1.0000   1.0000   1.0000   1.0000   1.0000   1.0000   1.0000
     1.0000   1.0000   1.0000   1.0000   1.0000   1.0000   1.0000   1.0000
     1.0000   1.0000   1.0000   1.0000   1.0000   1.0000   1.0000   1.0000
     1.0000   1.0000   1.0000   1.0000   1.0000   1.0000   1.0000   1.0000
     1.0000   1.0000   1.0000   1.0000   1.0000   1.0000   1.0000   1.0000
     1.0000   1.0000   1.0000   1.0000   1.0000   1.0000   1.0000   1.0000
     1.0000   1.0000   1.0000   1.0000   1.0000   1.0000   1.0000   1.0000
     1.0000   1.0000   1.0000   1.0000   1.0000   1.0000   1.0000   1.0000
     1.0000   1.0000   1.0000   1.0000   1.0000   1.0000   1.0000   1.0000
     1.0000   1.0000   1.0000   1.0000   1.0000   1.0000   1.0000   1.0000
     1.0000   1.0000   1.0000   1.0000   1.0000   1.0000   1.0000   1.0000
     1.0000   1.0000   1.0000   1.0000   1.0000   1.0000   1.0000   1.0000
     1.0000   1.0000   1.0000   1.0000   1.0000   1.0000   1.0000   1.0000
     1.0000   1.0000   1.0000   1.0000   1.0000   1.0000   1.0000   1.0000
     1.0000   1.0000   1.0000   1.0000   1.0000   1.0000   1.0000   1.0000
     1.0000   1.0000   1.0000   1.0000   1.0000   1.0000   1.0000   1.0000
     1.0000   1.0000   1.0000   1.0000   1.0000   1.0000   0.0899   0.0007
     0.0000   0.0000   0.0000   0.0000   0.0000   0.0000   0.0000   0.0000
     0.0000   0.0000   0.0000   0.0000   0.0000   0.0000   0.0000   0.0000
     0.0000   0.0000   0.0000   0.0000   0.0000   0.0000   0.0000   0.0000
     0.0000

          k = 0.0000 0.3333 0.3333 ( 50416 PWs)   bands (ev):

    -3.0777  -2.7626  -2.7090  -2.3944  -2.0815  -2.0422  -1.7591  -1.7439
    -1.7286  -1.6568  -1.4163  -1.4066  -1.3890  -1.2958  -1.0613  -1.0075
    -0.4221  -0.4150  -0.3928  -0.3888  -0.3882  -0.2945  -0.0862  -0.0829
    -0.0650  -0.0444  -0.0321   0.0862   0.3158   0.5786   0.5924   0.6228
     0.6648   0.9020   0.9151   0.9196   0.9311   0.9516   1.0607   1.2295
     1.2365   1.2397   1.2496   1.2836   1.2897   1.3222   1.4485   1.6199
     1.7085   2.2178   2.2241   2.2319   2.2334   2.2602   2.2962   2.3530
     2.5357   2.5438   2.5516   2.5896   2.6138   2.6820   2.8850   2.8991
     2.9408   2.9713   3.1843   3.1895   3.2123   3.2282   3.2553   3.3088
     3.5051   3.5138   3.5222   3.5392   3.5452   3.5875   3.6187   3.6741
     3.8096   3.8127   3.8262   3.8315   3.8655   3.9362   3.9507   3.9900
     4.1412   4.2157   4.2407   4.3293   4.7536   4.7620   4.7832   4.7998
     4.8237   4.8254   4.8489   4.8581   4.8875   5.0547   5.0677   5.0703
     5.0965   5.1639   5.1874   5.1937   5.2045   5.2352   5.3020   5.4625
     5.4841   5.4876   5.5785   5.7798   5.7890   5.8621   5.8744   5.8934
     6.1084   6.1409   6.1424   6.1526   6.1668   6.1946   6.3168   6.3673
     6.3682   6.3892   6.4081   6.4576   6.4596   6.4877   6.5415   6.5848
     6.6631   6.7279   6.8248   6.8629   6.9497   7.0613   7.0718   7.1568
     7.3022   7.3257   7.3293   7.4755   7.6069   7.6113   7.6223   7.6350
     7.6762   7.6861   7.7042   7.7099   7.7255   7.7862   7.8010   7.9293
     7.9434   7.9499   7.9658   7.9850   7.9856   8.1084   8.1975   8.2111
     8.2457   8.2644   8.2888   8.3006   8.3864   8.4375   8.5609   8.6153
     8.6747   8.6841   8.6862   8.7289   8.9004   8.9206   8.9309   8.9326
     8.9551   9.0038   9.0183   9.0265   9.2049   9.2089   9.2217   9.2489
     9.2748

     occupation numbers 
     1.0000   1.0000   1.0000   1.0000   1.0000   1.0000   1.0000   1.0000
     1.0000   1.0000   1.0000   1.0000   1.0000   1.0000   1.0000   1.0000
     1.0000   1.0000   1.0000   1.0000   1.0000   1.0000   1.0000   1.0000
     1.0000   1.0000   1.0000   1.0000   1.0000   1.0000   1.0000   1.0000
     1.0000   1.0000   1.0000   1.0000   1.0000   1.0000   1.0000   1.0000
     1.0000   1.0000   1.0000   1.0000   1.0000   1.0000   1.0000   1.0000
     1.0000   1.0000   1.0000   1.0000   1.0000   1.0000   1.0000   1.0000
     1.0000   1.0000   1.0000   1.0000   1.0000   1.0000   1.0000   1.0000
     1.0000   1.0000   1.0000   1.0000   1.0000   1.0000   1.0000   1.0000
     1.0000   1.0000   1.0000   1.0000   1.0000   1.0000   1.0000   1.0000
     1.0000   1.0000   1.0000   1.0000   1.0000   1.0000   1.0000   1.0000
     1.0000   1.0000   1.0000   1.0000   1.0000   1.0000   1.0000   1.0000
     1.0000   1.0000   1.0000   1.0000   1.0000   1.0000   1.0000   1.0000
     1.0000   1.0000   1.0000   1.0000   1.0000   1.0000   1.0000   1.0000
     1.0000   1.0000   1.0000   1.0000   1.0000   1.0000   1.0000   1.0000
     1.0000   1.0000   1.0000   1.0000   1.0000   1.0000   1.0000   1.0000
     1.0000   1.0000   1.0000   1.0000   1.0000   1.0000   1.0000   1.0000
     1.0000   1.0000   1.0000   1.0000   1.0000   1.0000   1.0000   1.0000
     1.0000   1.0000   1.0000   1.0000   1.0000   1.0000   1.0000   1.0000
     1.0000   1.0000   1.0000   1.0000   1.0000   1.0000   1.0000   0.7492
     0.2730   0.1255   0.0137   0.0008   0.0008   0.0000   0.0000   0.0000
     0.0000   0.0000   0.0000   0.0000   0.0000   0.0000   0.0000   0.0000
     0.0000   0.0000   0.0000   0.0000   0.0000   0.0000   0.0000   0.0000
     0.0000   0.0000   0.0000   0.0000   0.0000   0.0000   0.0000   0.0000
     0.0000

          k = 0.3333 0.3333 0.3333 ( 50465 PWs)   bands (ev):

    -2.9666  -2.6500  -2.6500  -2.5750  -2.3120  -2.3120  -2.2082  -1.9249
    -1.3051  -1.3051  -1.2312  -0.9802  -0.9744  -0.9744  -0.9368  -0.9368
    -0.8222  -0.6149  -0.6149  -0.5444  -0.2838  -0.2838  -0.2371   0.0179
     0.0237   0.0237   0.0670   0.0670   0.1775   0.3577   0.3577   0.3635
     0.3635   0.4517   0.5711   0.7114   0.7114   0.8436   1.3417   1.3483
     1.3483   1.4075   1.4075   1.4661   1.6698   1.6779   1.6779   1.7494
     1.7494   1.8721   2.0439   2.3332   2.3332   2.3557   2.3557   2.3806
     2.4230   2.6386   2.6457   2.6457   2.6536   2.6536   2.7086   2.7086
     2.7635   2.8503   2.9694   2.9808   2.9808   3.0642   3.0642   3.2122
     3.9215   3.9236   3.9236   3.9262   3.9316   3.9316   3.9724   3.9724
     4.0134   4.0134   4.0392   4.1002   4.2133   4.2208   4.2208   4.2374
     4.2457   4.2457   4.2685   4.2685   4.3564   4.3591   4.3591   4.5126
     4.5705   4.5705   4.6941   4.8829   4.9039   4.9039   4.9659   4.9659
     4.9709   5.0277   5.2559   5.2610   5.2610   5.3377   5.3377   5.3847
     5.4747   5.4852   5.4852   5.5578   5.5578   5.5843   5.6145   5.6145
     5.7981   5.8516   5.8714   5.8714   5.9666   5.9666   6.0511   6.4648
     6.4716   6.4716   6.5126   6.5126   6.5173   6.5478   6.5478   6.5913
     6.6288   6.6288   6.7063   6.7721   6.7786   6.7786   6.8542   6.8542
     7.1051   7.1753   7.1753   7.2667   7.4464   7.4464   7.4919   7.5349
     7.5349   7.5538   7.8108   7.8108   7.8277   8.0278   8.0278   8.0440
     8.0563   8.0563   8.0764   8.1560   8.1560   8.2244   8.2566   8.2856
     8.2856   8.3718   8.3723   8.3723   8.7698   8.7698   8.7956   8.9946
     8.9946   9.0334   9.0334   9.0743   9.0794   9.0794   9.1221   9.1221
     9.1457   9.1821   9.2010   9.2713   9.3088   9.3088   9.3775   9.3776
     9.3816

     occupation numbers 
     1.0000   1.0000   1.0000   1.0000   1.0000   1.0000   1.0000   1.0000
     1.0000   1.0000   1.0000   1.0000   1.0000   1.0000   1.0000   1.0000
     1.0000   1.0000   1.0000   1.0000   1.0000   1.0000   1.0000   1.0000
     1.0000   1.0000   1.0000   1.0000   1.0000   1.0000   1.0000   1.0000
     1.0000   1.0000   1.0000   1.0000   1.0000   1.0000   1.0000   1.0000
     1.0000   1.0000   1.0000   1.0000   1.0000   1.0000   1.0000   1.0000
     1.0000   1.0000   1.0000   1.0000   1.0000   1.0000   1.0000   1.0000
     1.0000   1.0000   1.0000   1.0000   1.0000   1.0000   1.0000   1.0000
     1.0000   1.0000   1.0000   1.0000   1.0000   1.0000   1.0000   1.0000
     1.0000   1.0000   1.0000   1.0000   1.0000   1.0000   1.0000   1.0000
     1.0000   1.0000   1.0000   1.0000   1.0000   1.0000   1.0000   1.0000
     1.0000   1.0000   1.0000   1.0000   1.0000   1.0000   1.0000   1.0000
     1.0000   1.0000   1.0000   1.0000   1.0000   1.0000   1.0000   1.0000
     1.0000   1.0000   1.0000   1.0000   1.0000   1.0000   1.0000   1.0000
     1.0000   1.0000   1.0000   1.0000   1.0000   1.0000   1.0000   1.0000
     1.0000   1.0000   1.0000   1.0000   1.0000   1.0000   1.0000   1.0000
     1.0000   1.0000   1.0000   1.0000   1.0000   1.0000   1.0000   1.0000
     1.0000   1.0000   1.0000   1.0000   1.0000   1.0000   1.0000   1.0000
     1.0000   1.0000   1.0000   1.0000   1.0000   1.0000   1.0000   1.0000
     1.0000   1.0000   1.0000   1.0000   1.0000   0.0000   0.0000   0.0000
     0.0000   0.0000   0.0000   0.0000   0.0000   0.0000   0.0000   0.0000
     0.0000   0.0000   0.0000   0.0000   0.0000   0.0000   0.0000   0.0000
     0.0000   0.0000   0.0000   0.0000   0.0000   0.0000   0.0000   0.0000
     0.0000   0.0000   0.0000   0.0000   0.0000   0.0000   0.0000   0.0000
     0.0000

     the Fermi energy is     7.9367 ev

!    total energy              =   -4121.11223447 Ry
     total all-electron energy =    -51862.125548 Ry
     estimated scf accuracy    <          6.8E-10 Ry
     smearing contrib. (-TS)   =      -0.00078514 Ry
     internal energy E=F+TS    =   -4121.11144933 Ry

     The total energy is F=E-TS. E is the sum of the following terms:
     one-electron contribution =     336.83006070 Ry
     hartree contribution      =       2.62723008 Ry
     xc contribution           =    -277.28604666 Ry
     ewald contribution        =    -577.31370495 Ry
     one-center paw contrib.   =   -3605.96898850 Ry
      -> PAW hartree energy AE =      11.29187443 Ry
      -> PAW hartree energy PS =     -11.25668447 Ry
      -> PAW xc energy AE      =    -284.82898477 Ry
      -> PAW xc energy PS      =      15.19065714 Ry
      -> total E_H with PAW    =       2.66242004 Ry
      -> total E_XC with PAW   =    -546.92437429 Ry

     convergence has been achieved in  15 iterations

     Forces acting on atoms (cartesian axes, Ry/au):

     atom    1 type  1   force =     0.00000000    0.00000000   -0.00029361
     atom    2 type  1   force =     0.00000000    0.00000000    0.00029361
     atom    3 type  1   force =     0.00000000   -0.00029361    0.00000000
     atom    4 type  1   force =     0.00000000   -0.00059458   -0.00059458
     atom    5 type  1   force =     0.00000000   -0.00059458    0.00059458
     atom    6 type  1   force =     0.00000000    0.00029361    0.00000000
     atom    7 type  1   force =     0.00000000    0.00059458   -0.00059458
     atom    8 type  1   force =     0.00000000    0.00059458    0.00059458
     atom    9 type  1   force =    -0.00029361    0.00000000    0.00000000
     atom   10 type  1   force =    -0.00059458    0.00000000   -0.00059458
     atom   11 type  1   force =    -0.00059458    0.00000000    0.00059458
     atom   12 type  1   force =    -0.00059458   -0.00059458   -0.00000000
     atom   13 type  1   force =     0.00110239    0.00110239    0.00110239
     atom   14 type  1   force =     0.00110239    0.00110239   -0.00110239
     atom   15 type  1   force =    -0.00059458    0.00059458   -0.00000000
     atom   16 type  1   force =     0.00110239   -0.00110239    0.00110239
     atom   17 type  1   force =     0.00110239   -0.00110239   -0.00110239
     atom   18 type  1   force =     0.00029361    0.00000000    0.00000000
     atom   19 type  1   force =     0.00059458    0.00000000   -0.00059458
     atom   20 type  1   force =     0.00059458    0.00000000    0.00059458
     atom   21 type  1   force =     0.00059458   -0.00059458   -0.00000000
     atom   22 type  1   force =    -0.00110239    0.00110239    0.00110239
     atom   23 type  1   force =    -0.00110239    0.00110239   -0.00110239
     atom   24 type  1   force =     0.00059458    0.00059458   -0.00000000
     atom   25 type  1   force =    -0.00110239   -0.00110239    0.00110239
     atom   26 type  1   force =    -0.00110239   -0.00110239   -0.00110239
     atom   27 type  1   force =     0.00000000   -0.00552630   -0.00552630
     atom   28 type  1   force =    -0.00000000   -0.00013671    0.00000000
     atom   29 type  1   force =    -0.00000000   -0.00552630    0.00552630
     atom   30 type  1   force =     0.00000000    0.00000000   -0.00013671
     atom   31 type  1   force =     0.00000000    0.00000000    0.00000000
     atom   32 type  1   force =     0.00000000    0.00000000    0.00013671
     atom   33 type  1   force =    -0.00000000    0.00552630   -0.00552630
     atom   34 type  1   force =    -0.00000000    0.00013671    0.00000000
     atom   35 type  1   force =     0.00000000    0.00552630    0.00552630
     atom   36 type  1   force =     0.00080694   -0.00008404   -0.00008404
     atom   37 type  1   force =     0.00066040   -0.00024929    0.00000000
     atom   38 type  1   force =     0.00080694   -0.00008404    0.00008404
     atom   39 type  1   force =     0.00066040    0.00000000   -0.00024929
     atom   40 type  1   force =     0.00135429    0.00000000   -0.00000000
     atom   41 type  1   force =     0.00066040    0.00000000    0.00024929
     atom   42 type  1   force =     0.00080694    0.00008404   -0.00008404
     atom   43 type  1   force =     0.00066040    0.00024929    0.00000000
     atom   44 type  1   force =     0.00080694    0.00008404    0.00008404
     atom   45 type  1   force =    -0.00080694   -0.00008404   -0.00008404
     atom   46 type  1   force =    -0.00066040   -0.00024929    0.00000000
     atom   47 type  1   force =    -0.00080694   -0.00008404    0.00008404
     atom   48 type  1   force =    -0.00066040    0.00000000   -0.00024929
     atom   49 type  1   force =    -0.00135429    0.00000000   -0.00000000
     atom   50 type  1   force =    -0.00066040    0.00000000    0.00024929
     atom   51 type  1   force =    -0.00080694    0.00008404   -0.00008404
     atom   52 type  1   force =    -0.00066040    0.00024929    0.00000000
     atom   53 type  1   force =    -0.00080694    0.00008404    0.00008404
     atom   54 type  1   force =    -0.00552630    0.00000000   -0.00552630
     atom   55 type  1   force =    -0.00013671    0.00000000    0.00000000
     atom   56 type  1   force =    -0.00552630    0.00000000    0.00552630
     atom   57 type  1   force =    -0.00008404    0.00080694   -0.00008404
     atom   58 type  1   force =    -0.00024929    0.00066040    0.00000000
     atom   59 type  1   force =    -0.00008404    0.00080694    0.00008404
     atom   60 type  1   force =    -0.00008404   -0.00080694   -0.00008404
     atom   61 type  1   force =    -0.00024929   -0.00066040    0.00000000
     atom   62 type  1   force =    -0.00008404   -0.00080694    0.00008404
     atom   63 type  1   force =     0.00000000    0.00000000   -0.00013671
     atom   64 type  1   force =     0.00000000    0.00000000    0.00000000
     atom   65 type  1   force =     0.00000000    0.00000000    0.00013671
     atom   66 type  1   force =     0.00000000    0.00066040   -0.00024929
     atom   67 type  1   force =     0.00000000    0.00135429    0.00000000
     atom   68 type  1   force =     0.00000000    0.00066040    0.00024929
     atom   69 type  1   force =     0.00000000   -0.00066040   -0.00024929
     atom   70 type  1   force =     0.00000000   -0.00135429    0.00000000
     atom   71 type  1   force =     0.00000000   -0.00066040    0.00024929
     atom   72 type  1   force =     0.00552630    0.00000000   -0.00552630
     atom   73 type  1   force =     0.00013671    0.00000000    0.00000000
     atom   74 type  1   force =     0.00552630    0.00000000    0.00552630
     atom   75 type  1   force =     0.00008404    0.00080694   -0.00008404
     atom   76 type  1   force =     0.00024929    0.00066040    0.00000000
     atom   77 type  1   force =     0.00008404    0.00080694    0.00008404
     atom   78 type  1   force =     0.00008404   -0.00080694   -0.00008404
     atom   79 type  1   force =     0.00024929   -0.00066040    0.00000000
     atom   80 type  1   force =     0.00008404   -0.00080694    0.00008404
     atom   81 type  1   force =    -0.00552630   -0.00552630    0.00000000
     atom   82 type  1   force =    -0.00008404   -0.00008404    0.00080694
     atom   83 type  1   force =    -0.00008404   -0.00008404   -0.00080694
     atom   84 type  1   force =    -0.00013671    0.00000000   -0.00000000
     atom   85 type  1   force =    -0.00024929    0.00000000    0.00066040
     atom   86 type  1   force =    -0.00024929    0.00000000   -0.00066040
     atom   87 type  1   force =    -0.00552630    0.00552630   -0.00000000
     atom   88 type  1   force =    -0.00008404    0.00008404    0.00080694
     atom   89 type  1   force =    -0.00008404    0.00008404   -0.00080694
     atom   90 type  1   force =     0.00000000   -0.00013671    0.00000000
     atom   91 type  1   force =     0.00000000   -0.00024929    0.00066040
     atom   92 type  1   force =     0.00000000   -0.00024929   -0.00066040
     atom   93 type  1   force =     0.00000000    0.00000000    0.00000000
     atom   94 type  1   force =     0.00000000    0.00000000    0.00135429
     atom   95 type  1   force =     0.00000000    0.00000000   -0.00135429
     atom   96 type  1   force =     0.00000000    0.00013671    0.00000000
     atom   97 type  1   force =     0.00000000    0.00024929    0.00066040
     atom   98 type  1   force =     0.00000000    0.00024929   -0.00066040
     atom   99 type  1   force =     0.00552630   -0.00552630   -0.00000000
     atom  100 type  1   force =     0.00008404   -0.00008404    0.00080694
     atom  101 type  1   force =     0.00008404   -0.00008404   -0.00080694
     atom  102 type  1   force =     0.00013671    0.00000000   -0.00000000
     atom  103 type  1   force =     0.00024929    0.00000000    0.00066040
     atom  104 type  1   force =     0.00024929    0.00000000   -0.00066040
     atom  105 type  1   force =     0.00552630    0.00552630    0.00000000
     atom  106 type  1   force =     0.00008404    0.00008404    0.00080694
     atom  107 type  1   force =     0.00008404    0.00008404   -0.00080694
     The non-local contrib.  to forces
     atom    1 type  1   force =     0.00000000    0.00000000   -0.00078340
     atom    2 type  1   force =     0.00000000   -0.00000000    0.00078340
     atom    3 type  1   force =     0.00000000   -0.00078340    0.00000000
     atom    4 type  1   force =    -0.00000000   -0.00098778   -0.00098778
     atom    5 type  1   force =    -0.00000000   -0.00098778    0.00098778
     atom    6 type  1   force =     0.00000000    0.00078340    0.00000000
     atom    7 type  1   force =    -0.00000000    0.00098778   -0.00098778
     atom    8 type  1   force =     0.00000000    0.00098778    0.00098778
     atom    9 type  1   force =    -0.00078340   -0.00000000    0.00000000
     atom   10 type  1   force =    -0.00098778   -0.00000000   -0.00098778
     atom   11 type  1   force =    -0.00098778    0.00000000    0.00098778
     atom   12 type  1   force =    -0.00098778   -0.00098778   -0.00000000
     atom   13 type  1   force =     0.00013227    0.00013227    0.00013227
     atom   14 type  1   force =     0.00013227    0.00013227   -0.00013227
     atom   15 type  1   force =    -0.00098778    0.00098778    0.00000000
     atom   16 type  1   force =     0.00013227   -0.00013227    0.00013227
     atom   17 type  1   force =     0.00013227   -0.00013227   -0.00013227
     atom   18 type  1   force =     0.00078340    0.00000000    0.00000000
     atom   19 type  1   force =     0.00098778    0.00000000   -0.00098778
     atom   20 type  1   force =     0.00098778    0.00000000    0.00098778
     atom   21 type  1   force =     0.00098778   -0.00098778    0.00000000
     atom   22 type  1   force =    -0.00013227    0.00013227    0.00013227
     atom   23 type  1   force =    -0.00013227    0.00013227   -0.00013227
     atom   24 type  1   force =     0.00098778    0.00098778   -0.00000000
     atom   25 type  1   force =    -0.00013227   -0.00013227    0.00013227
[...]
     atom   44 type  1   force =     0.00000000    0.00000000    0.00000000
     atom   45 type  1   force =     0.00000000    0.00000000    0.00000000
     atom   46 type  1   force =     0.00000000    0.00000000    0.00000000
     atom   47 type  1   force =     0.00000000    0.00000000    0.00000000
     atom   48 type  1   force =     0.00000000    0.00000000    0.00000000
     atom   49 type  1   force =     0.00000000    0.00000000    0.00000000
     atom   50 type  1   force =     0.00000000    0.00000000    0.00000000
     atom   51 type  1   force =     0.00000000    0.00000000    0.00000000
     atom   52 type  1   force =     0.00000000    0.00000000    0.00000000
     atom   53 type  1   force =     0.00000000    0.00000000    0.00000000
     atom   54 type  1   force =     0.00000000    0.00000000    0.00000000
     atom   55 type  1   force =     0.00000000    0.00000000    0.00000000
     atom   56 type  1   force =     0.00000000    0.00000000    0.00000000
     atom   57 type  1   force =     0.00000000    0.00000000    0.00000000
     atom   58 type  1   force =     0.00000000    0.00000000    0.00000000
     atom   59 type  1   force =     0.00000000    0.00000000    0.00000000
     atom   60 type  1   force =     0.00000000    0.00000000    0.00000000
     atom   61 type  1   force =     0.00000000    0.00000000    0.00000000
     atom   62 type  1   force =     0.00000000    0.00000000    0.00000000
     atom   63 type  1   force =     0.00000000    0.00000000    0.00000000
     atom   64 type  1   force =     0.00000000    0.00000000    0.00000000
     atom   65 type  1   force =     0.00000000    0.00000000    0.00000000
     atom   66 type  1   force =     0.00000000    0.00000000    0.00000000
     atom   67 type  1   force =     0.00000000    0.00000000    0.00000000
     atom   68 type  1   force =     0.00000000    0.00000000    0.00000000
     atom   69 type  1   force =     0.00000000    0.00000000    0.00000000
     atom   70 type  1   force =     0.00000000    0.00000000    0.00000000
     atom   71 type  1   force =     0.00000000    0.00000000    0.00000000
     atom   72 type  1   force =     0.00000000    0.00000000    0.00000000
     atom   73 type  1   force =     0.00000000    0.00000000    0.00000000
     atom   74 type  1   force =     0.00000000    0.00000000    0.00000000
     atom   75 type  1   force =     0.00000000    0.00000000    0.00000000
     atom   76 type  1   force =     0.00000000    0.00000000    0.00000000
     atom   77 type  1   force =     0.00000000    0.00000000    0.00000000
     atom   78 type  1   force =     0.00000000    0.00000000    0.00000000
     atom   79 type  1   force =     0.00000000    0.00000000    0.00000000
     atom   80 type  1   force =     0.00000000    0.00000000    0.00000000
     atom   81 type  1   force =     0.00000000    0.00000000    0.00000000
     atom   82 type  1   force =     0.00000000    0.00000000    0.00000000
     atom   83 type  1   force =     0.00000000    0.00000000    0.00000000
     atom   84 type  1   force =     0.00000000    0.00000000    0.00000000
     atom   85 type  1   force =     0.00000000    0.00000000    0.00000000
     atom   86 type  1   force =     0.00000000    0.00000000    0.00000000
     atom   87 type  1   force =     0.00000000    0.00000000    0.00000000
     atom   88 type  1   force =     0.00000000    0.00000000    0.00000000
     atom   89 type  1   force =     0.00000000    0.00000000    0.00000000
     atom   90 type  1   force =     0.00000000    0.00000000    0.00000000
     atom   91 type  1   force =     0.00000000    0.00000000    0.00000000
     atom   92 type  1   force =     0.00000000    0.00000000    0.00000000
     atom   93 type  1   force =     0.00000000    0.00000000    0.00000000
     atom   94 type  1   force =     0.00000000    0.00000000    0.00000000
     atom   95 type  1   force =     0.00000000    0.00000000    0.00000000
     atom   96 type  1   force =     0.00000000    0.00000000    0.00000000
     atom   97 type  1   force =     0.00000000    0.00000000    0.00000000
     atom   98 type  1   force =     0.00000000    0.00000000    0.00000000
     atom   99 type  1   force =     0.00000000    0.00000000    0.00000000
     atom  100 type  1   force =     0.00000000    0.00000000    0.00000000
     atom  101 type  1   force =     0.00000000    0.00000000    0.00000000
     atom  102 type  1   force =     0.00000000    0.00000000    0.00000000
     atom  103 type  1   force =     0.00000000    0.00000000    0.00000000
     atom  104 type  1   force =     0.00000000    0.00000000    0.00000000
     atom  105 type  1   force =     0.00000000    0.00000000    0.00000000
     atom  106 type  1   force =     0.00000000    0.00000000    0.00000000
     atom  107 type  1   force =     0.00000000    0.00000000    0.00000000
     The SCF correction term to forces
     atom    1 type  1   force =    -0.00000000   -0.00000000   -0.00000091
     atom    2 type  1   force =    -0.00000000   -0.00000000    0.00000091
     atom    3 type  1   force =    -0.00000000   -0.00000091   -0.00000000
     atom    4 type  1   force =    -0.00000000   -0.00000136   -0.00000136
     atom    5 type  1   force =    -0.00000000   -0.00000136    0.00000136
     atom    6 type  1   force =    -0.00000000    0.00000091   -0.00000000
     atom    7 type  1   force =    -0.00000000    0.00000136   -0.00000136
     atom    8 type  1   force =    -0.00000000    0.00000136    0.00000136
     atom    9 type  1   force =    -0.00000091   -0.00000000   -0.00000000
     atom   10 type  1   force =    -0.00000136   -0.00000000   -0.00000136
     atom   11 type  1   force =    -0.00000136   -0.00000000    0.00000136
     atom   12 type  1   force =    -0.00000136   -0.00000136   -0.00000000
     atom   13 type  1   force =    -0.00000069   -0.00000069   -0.00000069
     atom   14 type  1   force =    -0.00000069   -0.00000069    0.00000069
     atom   15 type  1   force =    -0.00000136    0.00000136   -0.00000000
     atom   16 type  1   force =    -0.00000069    0.00000069   -0.00000069
     atom   17 type  1   force =    -0.00000069    0.00000069    0.00000069
     atom   18 type  1   force =     0.00000091   -0.00000000   -0.00000000
     atom   19 type  1   force =     0.00000136   -0.00000000   -0.00000136
     atom   20 type  1   force =     0.00000136   -0.00000000    0.00000136
     atom   21 type  1   force =     0.00000136   -0.00000136   -0.00000000
     atom   22 type  1   force =     0.00000069   -0.00000069   -0.00000069
     atom   23 type  1   force =     0.00000069   -0.00000069    0.00000069
     atom   24 type  1   force =     0.00000136    0.00000136   -0.00000000
     atom   25 type  1   force =     0.00000069    0.00000069   -0.00000069
     atom   26 type  1   force =     0.00000069    0.00000069    0.00000069
     atom   27 type  1   force =    -0.00000000   -0.00000061   -0.00000061
     atom   28 type  1   force =    -0.00000000   -0.00000135    0.00000000
     atom   29 type  1   force =    -0.00000000   -0.00000061    0.00000061
     atom   30 type  1   force =    -0.00000000    0.00000000   -0.00000135
     atom   31 type  1   force =    -0.00000000    0.00000000    0.00000000
     atom   32 type  1   force =    -0.00000000    0.00000000    0.00000135
     atom   33 type  1   force =    -0.00000000    0.00000061   -0.00000061
     atom   34 type  1   force =    -0.00000000    0.00000135    0.00000000
     atom   35 type  1   force =    -0.00000000    0.00000061    0.00000061
     atom   36 type  1   force =    -0.00000127   -0.00000108   -0.00000108
     atom   37 type  1   force =    -0.00000103   -0.00000054    0.00000000
     atom   38 type  1   force =    -0.00000127   -0.00000108    0.00000108
     atom   39 type  1   force =    -0.00000103    0.00000000   -0.00000054
     atom   40 type  1   force =     0.00000004    0.00000000    0.00000000
     atom   41 type  1   force =    -0.00000103    0.00000000    0.00000054
     atom   42 type  1   force =    -0.00000127    0.00000108   -0.00000108
     atom   43 type  1   force =    -0.00000103    0.00000054    0.00000000
     atom   44 type  1   force =    -0.00000127    0.00000108    0.00000108
     atom   45 type  1   force =     0.00000127   -0.00000108   -0.00000108
     atom   46 type  1   force =     0.00000103   -0.00000054    0.00000000
     atom   47 type  1   force =     0.00000127   -0.00000108    0.00000108
     atom   48 type  1   force =     0.00000103    0.00000000   -0.00000054
     atom   49 type  1   force =    -0.00000004    0.00000000    0.00000000
     atom   50 type  1   force =     0.00000103    0.00000000    0.00000054
     atom   51 type  1   force =     0.00000127    0.00000108   -0.00000108
     atom   52 type  1   force =     0.00000103    0.00000054    0.00000000
     atom   53 type  1   force =     0.00000127    0.00000108    0.00000108
     atom   54 type  1   force =    -0.00000061   -0.00000000   -0.00000061
     atom   55 type  1   force =    -0.00000135   -0.00000000    0.00000000
     atom   56 type  1   force =    -0.00000061   -0.00000000    0.00000061
     atom   57 type  1   force =    -0.00000108   -0.00000127   -0.00000108
     atom   58 type  1   force =    -0.00000054   -0.00000103    0.00000000
     atom   59 type  1   force =    -0.00000108   -0.00000127    0.00000108
     atom   60 type  1   force =    -0.00000108    0.00000127   -0.00000108
     atom   61 type  1   force =    -0.00000054    0.00000103    0.00000000
     atom   62 type  1   force =    -0.00000108    0.00000127    0.00000108
     atom   63 type  1   force =     0.00000000   -0.00000000   -0.00000135
     atom   64 type  1   force =     0.00000000   -0.00000000    0.00000000
     atom   65 type  1   force =     0.00000000   -0.00000000    0.00000135
     atom   66 type  1   force =     0.00000000   -0.00000103   -0.00000054
     atom   67 type  1   force =     0.00000000    0.00000004    0.00000000
     atom   68 type  1   force =     0.00000000   -0.00000103    0.00000054
     atom   69 type  1   force =     0.00000000    0.00000103   -0.00000054
     atom   70 type  1   force =     0.00000000   -0.00000004    0.00000000
     atom   71 type  1   force =     0.00000000    0.00000103    0.00000054
     atom   72 type  1   force =     0.00000061   -0.00000000   -0.00000061
     atom   73 type  1   force =     0.00000135   -0.00000000    0.00000000
     atom   74 type  1   force =     0.00000061   -0.00000000    0.00000061
     atom   75 type  1   force =     0.00000108   -0.00000127   -0.00000108
     atom   76 type  1   force =     0.00000054   -0.00000103    0.00000000
     atom   77 type  1   force =     0.00000108   -0.00000127    0.00000108
     atom   78 type  1   force =     0.00000108    0.00000127   -0.00000108
     atom   79 type  1   force =     0.00000054    0.00000103    0.00000000
     atom   80 type  1   force =     0.00000108    0.00000127    0.00000108
     atom   81 type  1   force =    -0.00000061   -0.00000061   -0.00000000
     atom   82 type  1   force =    -0.00000108   -0.00000108   -0.00000127
     atom   83 type  1   force =    -0.00000108   -0.00000108    0.00000127
     atom   84 type  1   force =    -0.00000135    0.00000000   -0.00000000
     atom   85 type  1   force =    -0.00000054    0.00000000   -0.00000103
     atom   86 type  1   force =    -0.00000054    0.00000000    0.00000103
     atom   87 type  1   force =    -0.00000061    0.00000061   -0.00000000
     atom   88 type  1   force =    -0.00000108    0.00000108   -0.00000127
     atom   89 type  1   force =    -0.00000108    0.00000108    0.00000127
     atom   90 type  1   force =     0.00000000   -0.00000135   -0.00000000
     atom   91 type  1   force =     0.00000000   -0.00000054   -0.00000103
     atom   92 type  1   force =     0.00000000   -0.00000054    0.00000103
     atom   93 type  1   force =     0.00000000    0.00000000   -0.00000000
     atom   94 type  1   force =     0.00000000    0.00000000    0.00000004
     atom   95 type  1   force =     0.00000000    0.00000000   -0.00000004
     atom   96 type  1   force =     0.00000000    0.00000135   -0.00000000
     atom   97 type  1   force =     0.00000000    0.00000054   -0.00000103
     atom   98 type  1   force =     0.00000000    0.00000054    0.00000103
     atom   99 type  1   force =     0.00000061   -0.00000061   -0.00000000
     atom  100 type  1   force =     0.00000108   -0.00000108   -0.00000127
     atom  101 type  1   force =     0.00000108   -0.00000108    0.00000127
     atom  102 type  1   force =     0.00000135    0.00000000   -0.00000000
     atom  103 type  1   force =     0.00000054    0.00000000   -0.00000103
     atom  104 type  1   force =     0.00000054    0.00000000    0.00000103
     atom  105 type  1   force =     0.00000061    0.00000061   -0.00000000
     atom  106 type  1   force =     0.00000108    0.00000108   -0.00000127
     atom  107 type  1   force =     0.00000108    0.00000108    0.00000127

     Total force =     0.000275     Total SCF correction =     0.000015


     Computing stress (Cartesian axis) and pressure

          total   stress  (Ry/bohr**3)                   (kbar)     P=        0.01
   0.00000009   0.00000000   0.00000000            0.01        0.00        0.00
   0.00000000   0.00000009   0.00000000            0.00        0.01        0.00
   0.00000000   0.00000000   0.00000009            0.00        0.00        0.01

     kinetic stress (kbar)   1495.52      0.00      0.00
                                0.00   1495.52      0.00
                                0.00      0.00   1495.52

     local   stress (kbar)    540.05      0.00      0.00
                                0.00    540.05      0.00
                                0.00      0.00    540.05

     nonloc. stress (kbar)   1173.64      0.00      0.00
                                0.00   1173.64      0.00
                                0.00      0.00   1173.64

     hartree stress (kbar)      8.76      0.00     -0.00
                                0.00      8.76      0.00
                               -0.00      0.00      8.76

     exc-cor stress (kbar)    499.63     -0.00     -0.00
                               -0.00    499.63     -0.00
                               -0.00     -0.00    499.63

     corecor stress (kbar)  -1312.12      0.00      0.00
                                0.00  -1312.12      0.00
                                0.00      0.00  -1312.12

     ewald   stress (kbar)  -2405.47      0.00     -0.00
                                0.00  -2405.47     -0.00
                               -0.00     -0.00  -2405.47

     hubbard stress (kbar)      0.00      0.00      0.00
                                0.00      0.00      0.00
                                0.00      0.00      0.00

     DFT-D   stress (kbar)      0.00      0.00      0.00
                                0.00      0.00      0.00
                                0.00      0.00      0.00

     XDM     stress (kbar)      0.00      0.00      0.00
                                0.00      0.00      0.00
                                0.00      0.00      0.00

     dft-nl  stress (kbar)      0.00      0.00      0.00
                                0.00      0.00      0.00
                                0.00      0.00      0.00

     TS-vdW  stress (kbar)      0.00      0.00      0.00
                                0.00      0.00      0.00
                                0.00      0.00      0.00

     MDB     stress (kbar)      0.00      0.00      0.00
                                0.00      0.00      0.00
                                0.00      0.00      0.00

     3D-RISM stress (kbar)      0.00      0.00      0.00
                                0.00      0.00      0.00
                                0.00      0.00      0.00


     Writing all to output data dir ./temp/al-3x3x3-vacancy.save/ :
     XML data file, charge density, pseudopotentials, collected wavefunctions

     init_run     :    373.28s CPU    374.42s WALL (       2 calls)
     electrons    :  61185.48s CPU  61850.36s WALL (      17 calls)
     update_pot   :     23.15s CPU     23.39s WALL (      15 calls)
     forces       :   1910.25s CPU   1917.86s WALL (      17 calls)
     stress       :   4191.43s CPU   4210.63s WALL (      17 calls)

     Called by init_run:
     wfcinit      :    352.74s CPU    353.57s WALL (       2 calls)
     wfcinit:atom :      0.05s CPU      0.08s WALL (       8 calls)
     wfcinit:wfcr :    351.91s CPU    352.60s WALL (       8 calls)
     potinit      :      3.20s CPU      3.23s WALL (       2 calls)
     hinit0       :      0.42s CPU      0.43s WALL (       2 calls)

     Called by electrons:
     c_bands      :  53004.13s CPU  53550.58s WALL (     199 calls)
     sum_band     :   6481.81s CPU   6561.27s WALL (     199 calls)
     v_of_rho     :     34.09s CPU     35.70s WALL (     201 calls)
     v_h          :      2.61s CPU      2.80s WALL (     201 calls)
     v_xc         :     36.73s CPU     38.34s WALL (     235 calls)
     newd         :   1555.50s CPU   1593.67s WALL (     201 calls)
     PAW_pot      :    271.77s CPU    272.90s WALL (     216 calls)
     mix_rho      :      6.73s CPU      7.16s WALL (     199 calls)

     Called by c_bands:
     init_us_2    :    134.88s CPU    135.79s WALL (    1796 calls)
     cegterg      :  52725.07s CPU  53268.78s WALL (     799 calls)

     Called by sum_band:
     sum_band:wei :      0.04s CPU      0.04s WALL (     199 calls)
     sum_band:loo :   4755.58s CPU   4792.84s WALL (     199 calls)
     sum_band:buf :      6.04s CPU      6.12s WALL (     796 calls)
     sum_band:ini :     57.75s CPU     58.16s WALL (     796 calls)
     sum_band:cal :   4663.32s CPU   4685.61s WALL (     856 calls)
     sum_band:bec :     11.54s CPU     11.63s WALL (     856 calls)
     addusdens    :   1417.18s CPU   1458.34s WALL (     199 calls)
                                        0.00s GPU  (     199 calls)
     addusd:skk   :      7.48s CPU     17.86s WALL (     199 calls)
                                        0.00s GPU  (     199 calls)

     Called by *egterg:
     cdiaghg      :    649.64s CPU    695.65s WALL (    4478 calls)
     cegterg:over :   5747.81s CPU   5792.06s WALL (    3802 calls)
     cegterg:upda :   1864.02s CPU   1880.11s WALL (    3802 calls)
     cegterg:last :   4956.74s CPU   4994.73s WALL (    2119 calls)
     cdiaghg:chol :     12.74s CPU     13.87s WALL (    4478 calls)
     cdiaghg:inve :     11.92s CPU     12.18s WALL (    4478 calls)
     cdiaghg:para :    270.84s CPU    277.49s WALL (    8956 calls)
     h_psi        :  26696.19s CPU  26984.77s WALL (    4609 calls)
     s_psi        :  10936.42s CPU  11020.90s WALL (    4609 calls)
     g_psi        :      9.09s CPU      9.20s WALL (    3802 calls)

     Called by h_psi:
     h_psi:calbec :  12962.91s CPU  13061.88s WALL (    4609 calls)
     vloc_psi     :   1678.94s CPU   1779.32s WALL (    4609 calls)
     add_vuspsi   :  12045.56s CPU  12128.19s WALL (    4609 calls)

     General routines
     calbec       :  19925.56s CPU  20048.71s WALL (    5805 calls)
     fft          :     29.48s CPU     32.11s WALL (    3034 calls)
     ffts         :      2.11s CPU      2.20s WALL (     400 calls)
     fftw         :   1659.80s CPU   1762.05s WALL ( 1072796 calls)
     interpolate  :      2.90s CPU      3.13s WALL (     201 calls)

     Parallel routines

     PAW routines
     PAW_pot      :    271.77s CPU    272.90s WALL (     216 calls)
     PAW_symme    :      1.38s CPU      1.46s WALL (     415 calls)

     PWSCF        :     18h55m CPU     19h 7m WALL


   This run was terminated on:  14:58:45  19Dec2025            

=------------------------------------------------------------------------------=
   JOB DONE.
=------------------------------------------------------------------------------=
