 INFO
nunit      1    1    1
unit   cell
celltype   primcell
shape   parapipedal
 END_INFO
 DIM-GROUP
           3           1
 PRIMVEC
   12.0433688370    0.0000000000    0.0000000000
    0.0000000000   12.0433688370    0.0000000000
    0.0000000000    0.0000000000   12.0433688370
 CONVVEC
   12.0433688370    0.0000000000    0.0000000000
    0.0000000000   12.0433688370    0.0000000000
    0.0000000000    0.0000000000   12.0433688370
 PRIMCOORD
         107           1
 13      0.0000000000     0.0000000000     4.0120266550     0.0000000000    -0.0000000000    -0.0000317200
 13      0.0000000000     0.0000000000     8.0313384320     0.0000000000    -0.0000000000     0.0000317200
 13      0.0000000000     4.0120266550     0.0000000000    -0.0000000000    -0.0000317200    -0.0000000000
 13      0.0000000000     4.0030245230     4.0030245230    -0.0000000000     0.0000086600     0.0000086600
 13      0.0000000000     4.0030245230     8.0403405640     0.0000000000     0.0000086600    -0.0000086600
 13      0.0000000000     8.0313384320     0.0000000000    -0.0000000000     0.0000317200    -0.0000000000
 13      0.0000000000     8.0403405640     4.0030245230     0.0000000000    -0.0000086600     0.0000086600
 13      0.0000000000     8.0403405640     8.0403405640    -0.0000000000    -0.0000086600    -0.0000086600
 13      4.0120266550     0.0000000000     0.0000000000    -0.0000317200     0.0000000000     0.0000000000
 13      4.0030245230     0.0000000000     4.0030245230     0.0000086600    -0.0000000000     0.0000086600
 13      4.0030245230     0.0000000000     8.0403405640     0.0000086600     0.0000000000    -0.0000086600
 13      4.0030245230     4.0030245230     0.0000000000     0.0000086600     0.0000086600     0.0000000000
 13      4.0187877190     4.0187877190     4.0187877190    -0.0000229200    -0.0000229200    -0.0000229200
 13      4.0187877190     4.0187877190     8.0245773680    -0.0000229200    -0.0000229200     0.0000229200
 13      4.0030245230     8.0403405640     0.0000000000     0.0000086600    -0.0000086600     0.0000000000
 13      4.0187877190     8.0245773680     4.0187877190    -0.0000229200     0.0000229200    -0.0000229200
 13      4.0187877190     8.0245773680     8.0245773680    -0.0000229200     0.0000229200     0.0000229200
 13      8.0313384320     0.0000000000     0.0000000000     0.0000317200     0.0000000000     0.0000000000
 13      8.0403405640     0.0000000000     4.0030245230    -0.0000086600     0.0000000000     0.0000086600
 13      8.0403405640     0.0000000000     8.0403405640    -0.0000086600    -0.0000000000    -0.0000086600
 13      8.0403405640     4.0030245230     0.0000000000    -0.0000086600     0.0000086600     0.0000000000
 13      8.0245773680     4.0187877190     4.0187877190     0.0000229200    -0.0000229200    -0.0000229200
 13      8.0245773680     4.0187877190     8.0245773680     0.0000229200    -0.0000229200     0.0000229200
 13      8.0403405640     8.0403405640     0.0000000000    -0.0000086600    -0.0000086600     0.0000000000
 13      8.0245773680     8.0245773680     4.0187877190     0.0000229200     0.0000229200    -0.0000229200
 13      8.0245773680     8.0245773680     8.0245773680     0.0000229200     0.0000229200     0.0000229200
 13      0.0000000000     1.9767233170     1.9767233170     0.0000000000     0.0000022600     0.0000022600
 13      0.0000000000     2.0067402610     6.0216823630     0.0000000000    -0.0000139900     0.0000000000
 13      0.0000000000     1.9767233170    10.0666412280     0.0000000000     0.0000022600    -0.0000022600
 13      0.0000000000     6.0216823630     2.0067402610    -0.0000000000     0.0000000000    -0.0000139900
 13      0.0000000000     6.0216823630     6.0216823630     0.0000000000     0.0000000000     0.0000000000
 13      0.0000000000     6.0216823630    10.0366242850    -0.0000000000     0.0000000000     0.0000139900
 13      0.0000000000    10.0666412280     1.9767233170     0.0000000000    -0.0000022600     0.0000022600
 13      0.0000000000    10.0366242850     6.0216823630     0.0000000000     0.0000139900     0.0000000000
 13      0.0000000000    10.0666412280    10.0666412280     0.0000000000    -0.0000022600    -0.0000022600
 13      4.0121144590     2.0044688020     2.0044688020    -0.0000119600     0.0000036800     0.0000036800
 13      4.0159452430     2.0052907470     6.0216823630     0.0000041100     0.0000203400    -0.0000000000
 13      4.0121144590     2.0044688020    10.0388957440    -0.0000119600     0.0000036800    -0.0000036800
 13      4.0159452430     6.0216823630     2.0052907470     0.0000041100    -0.0000000000     0.0000203400
 13      4.0180569280     6.0216823630     6.0216823630    -0.0000799800     0.0000000000    -0.0000000000
 13      4.0159452430     6.0216823630    10.0380737990     0.0000041100     0.0000000000    -0.0000203400
 13      4.0121144590    10.0388957440     2.0044688020    -0.0000119600    -0.0000036800     0.0000036800
 13      4.0159452430    10.0380737990     6.0216823630     0.0000041100    -0.0000203400    -0.0000000000
 13      4.0121144590    10.0388957440    10.0388957440    -0.0000119600    -0.0000036800    -0.0000036800
 13      8.0312506290     2.0044688020     2.0044688020     0.0000119600     0.0000036800     0.0000036800
 13      8.0274198440     2.0052907470     6.0216823630    -0.0000041100     0.0000203400    -0.0000000000
 13      8.0312506290     2.0044688020    10.0388957440     0.0000119600     0.0000036800    -0.0000036800
 13      8.0274198440     6.0216823630     2.0052907470    -0.0000041100     0.0000000000     0.0000203400
 13      8.0253081590     6.0216823630     6.0216823630     0.0000799800     0.0000000000    -0.0000000000
 13      8.0274198440     6.0216823630    10.0380737990    -0.0000041100    -0.0000000000    -0.0000203400
 13      8.0312506290    10.0388957440     2.0044688020     0.0000119600    -0.0000036800     0.0000036800
 13      8.0274198440    10.0380737990     6.0216823630    -0.0000041100    -0.0000203400    -0.0000000000
 13      8.0312506290    10.0388957440    10.0388957440     0.0000119600    -0.0000036800    -0.0000036800
 13      1.9767233170     0.0000000000     1.9767233170     0.0000022600     0.0000000000     0.0000022600
 13      2.0067402610     0.0000000000     6.0216823630    -0.0000139900     0.0000000000    -0.0000000000
 13      1.9767233170     0.0000000000    10.0666412280     0.0000022600     0.0000000000    -0.0000022600
 13      2.0044688020     4.0121144590     2.0044688020     0.0000036800    -0.0000119600     0.0000036800
 13      2.0052907470     4.0159452430     6.0216823630     0.0000203400     0.0000041100     0.0000000000
 13      2.0044688020     4.0121144590    10.0388957440     0.0000036800    -0.0000119600    -0.0000036800
 13      2.0044688020     8.0312506290     2.0044688020     0.0000036800     0.0000119600     0.0000036800
 13      2.0052907470     8.0274198440     6.0216823630     0.0000203400    -0.0000041100    -0.0000000000
 13      2.0044688020     8.0312506290    10.0388957440     0.0000036800     0.0000119600    -0.0000036800
 13      6.0216823630     0.0000000000     2.0067402610    -0.0000000000     0.0000000000    -0.0000139900
 13      6.0216823630     0.0000000000     6.0216823630     0.0000000000     0.0000000000     0.0000000000
 13      6.0216823630     0.0000000000    10.0366242850    -0.0000000000     0.0000000000     0.0000139900
 13      6.0216823630     4.0159452430     2.0052907470     0.0000000000     0.0000041100     0.0000203400
 13      6.0216823630     4.0180569280     6.0216823630     0.0000000000    -0.0000799800     0.0000000000
 13      6.0216823630     4.0159452430    10.0380737990    -0.0000000000     0.0000041100    -0.0000203400
 13      6.0216823630     8.0274198440     2.0052907470    -0.0000000000    -0.0000041100     0.0000203400
 13      6.0216823630     8.0253081590     6.0216823630     0.0000000000     0.0000799800     0.0000000000
 13      6.0216823630     8.0274198440    10.0380737990     0.0000000000    -0.0000041100    -0.0000203400
 13     10.0666412280     0.0000000000     1.9767233170    -0.0000022600     0.0000000000     0.0000022600
 13     10.0366242850     0.0000000000     6.0216823630     0.0000139900     0.0000000000    -0.0000000000
 13     10.0666412280     0.0000000000    10.0666412280    -0.0000022600     0.0000000000    -0.0000022600
 13     10.0388957440     4.0121144590     2.0044688020    -0.0000036800    -0.0000119600     0.0000036800
 13     10.0380737990     4.0159452430     6.0216823630    -0.0000203400     0.0000041100    -0.0000000000
 13     10.0388957440     4.0121144590    10.0388957440    -0.0000036800    -0.0000119600    -0.0000036800
 13     10.0388957440     8.0312506290     2.0044688020    -0.0000036800     0.0000119600     0.0000036800
 13     10.0380737990     8.0274198440     6.0216823630    -0.0000203400    -0.0000041100     0.0000000000
 13     10.0388957440     8.0312506290    10.0388957440    -0.0000036800     0.0000119600    -0.0000036800
 13      1.9767233170     1.9767233170     0.0000000000     0.0000022600     0.0000022600     0.0000000000
 13      2.0044688020     2.0044688020     4.0121144590     0.0000036800     0.0000036800    -0.0000119600
 13      2.0044688020     2.0044688020     8.0312506290     0.0000036800     0.0000036800     0.0000119600
 13      2.0067402610     6.0216823630     0.0000000000    -0.0000139900     0.0000000000     0.0000000000
 13      2.0052907470     6.0216823630     4.0159452430     0.0000203400     0.0000000000     0.0000041100
 13      2.0052907470     6.0216823630     8.0274198440     0.0000203400    -0.0000000000    -0.0000041100
 13      1.9767233170    10.0666412280     0.0000000000     0.0000022600    -0.0000022600    -0.0000000000
 13      2.0044688020    10.0388957440     4.0121144590     0.0000036800    -0.0000036800    -0.0000119600
 13      2.0044688020    10.0388957440     8.0312506290     0.0000036800    -0.0000036800     0.0000119600
 13      6.0216823630     2.0067402610     0.0000000000     0.0000000000    -0.0000139900    -0.0000000000
 13      6.0216823630     2.0052907470     4.0159452430     0.0000000000     0.0000203400     0.0000041100
 13      6.0216823630     2.0052907470     8.0274198440    -0.0000000000     0.0000203400    -0.0000041100
 13      6.0216823630     6.0216823630     0.0000000000     0.0000000000     0.0000000000     0.0000000000
 13      6.0216823630     6.0216823630     4.0180569280     0.0000000000     0.0000000000    -0.0000799800
 13      6.0216823630     6.0216823630     8.0253081590     0.0000000000     0.0000000000     0.0000799800
 13      6.0216823630    10.0366242850     0.0000000000     0.0000000000     0.0000139900    -0.0000000000
 13      6.0216823630    10.0380737990     4.0159452430    -0.0000000000    -0.0000203400     0.0000041100
 13      6.0216823630    10.0380737990     8.0274198440     0.0000000000    -0.0000203400    -0.0000041100
 13     10.0666412280     1.9767233170     0.0000000000    -0.0000022600     0.0000022600    -0.0000000000
 13     10.0388957440     2.0044688020     4.0121144590    -0.0000036800     0.0000036800    -0.0000119600
 13     10.0388957440     2.0044688020     8.0312506290    -0.0000036800     0.0000036800     0.0000119600
 13     10.0366242850     6.0216823630     0.0000000000     0.0000139900     0.0000000000     0.0000000000
 13     10.0380737990     6.0216823630     4.0159452430    -0.0000203400    -0.0000000000     0.0000041100
 13     10.0380737990     6.0216823630     8.0274198440    -0.0000203400     0.0000000000    -0.0000041100
 13     10.0666412280    10.0666412280     0.0000000000    -0.0000022600    -0.0000022600     0.0000000000
 13     10.0388957440    10.0388957440     4.0121144590    -0.0000036800    -0.0000036800    -0.0000119600
 13     10.0388957440    10.0388957440     8.0312506290    -0.0000036800    -0.0000036800     0.0000119600
 CONVCOORD
         107           1
 13      0.0000000000     0.0000000000     4.0120266550
 13      0.0000000000     0.0000000000     8.0313384320
 13      0.0000000000     4.0120266550     0.0000000000
 13      0.0000000000     4.0030245230     4.0030245230
 13      0.0000000000     4.0030245230     8.0403405640
 13      0.0000000000     8.0313384320     0.0000000000
 13      0.0000000000     8.0403405640     4.0030245230
 13      0.0000000000     8.0403405640     8.0403405640
 13      4.0120266550     0.0000000000     0.0000000000
 13      4.0030245230     0.0000000000     4.0030245230
 13      4.0030245230     0.0000000000     8.0403405640
 13      4.0030245230     4.0030245230     0.0000000000
 13      4.0187877190     4.0187877190     4.0187877190
 13      4.0187877190     4.0187877190     8.0245773680
 13      4.0030245230     8.0403405640     0.0000000000
 13      4.0187877190     8.0245773680     4.0187877190
 13      4.0187877190     8.0245773680     8.0245773680
 13      8.0313384320     0.0000000000     0.0000000000
 13      8.0403405640     0.0000000000     4.0030245230
 13      8.0403405640     0.0000000000     8.0403405640
 13      8.0403405640     4.0030245230     0.0000000000
 13      8.0245773680     4.0187877190     4.0187877190
 13      8.0245773680     4.0187877190     8.0245773680
 13      8.0403405640     8.0403405640     0.0000000000
 13      8.0245773680     8.0245773680     4.0187877190
 13      8.0245773680     8.0245773680     8.0245773680
 13      0.0000000000     1.9767233170     1.9767233170
 13      0.0000000000     2.0067402610     6.0216823630
 13      0.0000000000     1.9767233170    10.0666412280
 13      0.0000000000     6.0216823630     2.0067402610
 13      0.0000000000     6.0216823630     6.0216823630
 13      0.0000000000     6.0216823630    10.0366242850
 13      0.0000000000    10.0666412280     1.9767233170
 13      0.0000000000    10.0366242850     6.0216823630
 13      0.0000000000    10.0666412280    10.0666412280
 13      4.0121144590     2.0044688020     2.0044688020
 13      4.0159452430     2.0052907470     6.0216823630
 13      4.0121144590     2.0044688020    10.0388957440
 13      4.0159452430     6.0216823630     2.0052907470
 13      4.0180569280     6.0216823630     6.0216823630
 13      4.0159452430     6.0216823630    10.0380737990
 13      4.0121144590    10.0388957440     2.0044688020
 13      4.0159452430    10.0380737990     6.0216823630
 13      4.0121144590    10.0388957440    10.0388957440
 13      8.0312506290     2.0044688020     2.0044688020
 13      8.0274198440     2.0052907470     6.0216823630
 13      8.0312506290     2.0044688020    10.0388957440
 13      8.0274198440     6.0216823630     2.0052907470
 13      8.0253081590     6.0216823630     6.0216823630
 13      8.0274198440     6.0216823630    10.0380737990
 13      8.0312506290    10.0388957440     2.0044688020
 13      8.0274198440    10.0380737990     6.0216823630
 13      8.0312506290    10.0388957440    10.0388957440
 13      1.9767233170     0.0000000000     1.9767233170
 13      2.0067402610     0.0000000000     6.0216823630
 13      1.9767233170     0.0000000000    10.0666412280
 13      2.0044688020     4.0121144590     2.0044688020
 13      2.0052907470     4.0159452430     6.0216823630
 13      2.0044688020     4.0121144590    10.0388957440
 13      2.0044688020     8.0312506290     2.0044688020
 13      2.0052907470     8.0274198440     6.0216823630
 13      2.0044688020     8.0312506290    10.0388957440
 13      6.0216823630     0.0000000000     2.0067402610
 13      6.0216823630     0.0000000000     6.0216823630
 13      6.0216823630     0.0000000000    10.0366242850
 13      6.0216823630     4.0159452430     2.0052907470
 13      6.0216823630     4.0180569280     6.0216823630
 13      6.0216823630     4.0159452430    10.0380737990
 13      6.0216823630     8.0274198440     2.0052907470
 13      6.0216823630     8.0253081590     6.0216823630
 13      6.0216823630     8.0274198440    10.0380737990
 13     10.0666412280     0.0000000000     1.9767233170
 13     10.0366242850     0.0000000000     6.0216823630
 13     10.0666412280     0.0000000000    10.0666412280
 13     10.0388957440     4.0121144590     2.0044688020
 13     10.0380737990     4.0159452430     6.0216823630
 13     10.0388957440     4.0121144590    10.0388957440
 13     10.0388957440     8.0312506290     2.0044688020
 13     10.0380737990     8.0274198440     6.0216823630
 13     10.0388957440     8.0312506290    10.0388957440
 13      1.9767233170     1.9767233170     0.0000000000
 13      2.0044688020     2.0044688020     4.0121144590
 13      2.0044688020     2.0044688020     8.0312506290
 13      2.0067402610     6.0216823630     0.0000000000
 13      2.0052907470     6.0216823630     4.0159452430
 13      2.0052907470     6.0216823630     8.0274198440
 13      1.9767233170    10.0666412280     0.0000000000
 13      2.0044688020    10.0388957440     4.0121144590
 13      2.0044688020    10.0388957440     8.0312506290
 13      6.0216823630     2.0067402610     0.0000000000
 13      6.0216823630     2.0052907470     4.0159452430
 13      6.0216823630     2.0052907470     8.0274198440
 13      6.0216823630     6.0216823630     0.0000000000
 13      6.0216823630     6.0216823630     4.0180569280
 13      6.0216823630     6.0216823630     8.0253081590
 13      6.0216823630    10.0366242850     0.0000000000
 13      6.0216823630    10.0380737990     4.0159452430
 13      6.0216823630    10.0380737990     8.0274198440
 13     10.0666412280     1.9767233170     0.0000000000
 13     10.0388957440     2.0044688020     4.0121144590
 13     10.0388957440     2.0044688020     8.0312506290
 13     10.0366242850     6.0216823630     0.0000000000
 13     10.0380737990     6.0216823630     4.0159452430
 13     10.0380737990     6.0216823630     8.0274198440
 13     10.0666412280    10.0666412280     0.0000000000
 13     10.0388957440    10.0388957440     4.0121144590
 13     10.0388957440    10.0388957440     8.0312506290
 RECIP-PRIMVEC
    0.0830332454    0.0000000000    0.0000000000

    0.0000000000    0.0830332454    0.0000000000

    0.0000000000    0.0000000000    0.0830332454

 RECIP-CONVVEC
    0.0830332454    0.0000000000    0.0000000000

    0.0000000000    0.0830332454    0.0000000000

    0.0000000000    0.0000000000    0.0830332454

 WIGNER-SEITZ-PRIMCELL
           4
 -0.6021684E+01 -0.6021684E+01  0.6021684E+01  -0.1000000E+01  0.0000000E+00  0.0000000E+00
 -0.6021684E+01  0.6021684E+01  0.6021684E+01  -0.1000000E+01  0.0000000E+00  0.0000000E+00
 -0.6021684E+01  0.6021684E+01 -0.6021684E+01  -0.1000000E+01  0.0000000E+00  0.0000000E+00
 -0.6021684E+01 -0.6021684E+01 -0.6021684E+01  -0.1000000E+01  0.0000000E+00  0.0000000E+00
           4
 -0.6021684E+01 -0.6021684E+01 -0.6021684E+01  -0.0000000E+00 -0.1000000E+01 -0.0000000E+00
  0.6021684E+01 -0.6021684E+01 -0.6021684E+01  -0.0000000E+00 -0.1000000E+01 -0.0000000E+00
  0.6021684E+01 -0.6021684E+01  0.6021684E+01  -0.0000000E+00 -0.1000000E+01 -0.0000000E+00
 -0.6021684E+01 -0.6021684E+01  0.6021684E+01  -0.0000000E+00 -0.1000000E+01 -0.0000000E+00
           4
 -0.6021684E+01  0.6021684E+01 -0.6021684E+01   0.0000000E+00  0.0000000E+00 -0.1000000E+01
  0.6021684E+01  0.6021684E+01 -0.6021684E+01   0.0000000E+00  0.0000000E+00 -0.1000000E+01
  0.6021684E+01 -0.6021684E+01 -0.6021684E+01   0.0000000E+00  0.0000000E+00 -0.1000000E+01
 -0.6021684E+01 -0.6021684E+01 -0.6021684E+01   0.0000000E+00  0.0000000E+00 -0.1000000E+01
           4
  0.6021684E+01 -0.6021684E+01  0.6021684E+01  -0.0000000E+00 -0.0000000E+00  0.1000000E+01
  0.6021684E+01  0.6021684E+01  0.6021684E+01  -0.0000000E+00 -0.0000000E+00  0.1000000E+01
 -0.6021684E+01  0.6021684E+01  0.6021684E+01  -0.0000000E+00 -0.0000000E+00  0.1000000E+01
 -0.6021684E+01 -0.6021684E+01  0.6021684E+01  -0.0000000E+00 -0.0000000E+00  0.1000000E+01
           4
 -0.6021684E+01  0.6021684E+01  0.6021684E+01   0.0000000E+00  0.1000000E+01  0.0000000E+00
  0.6021684E+01  0.6021684E+01  0.6021684E+01   0.0000000E+00  0.1000000E+01  0.0000000E+00
  0.6021684E+01  0.6021684E+01 -0.6021684E+01   0.0000000E+00  0.1000000E+01  0.0000000E+00
 -0.6021684E+01  0.6021684E+01 -0.6021684E+01   0.0000000E+00  0.1000000E+01  0.0000000E+00
           4
  0.6021684E+01 -0.6021684E+01  0.6021684E+01   0.1000000E+01 -0.0000000E+00 -0.0000000E+00
  0.6021684E+01 -0.6021684E+01 -0.6021684E+01   0.1000000E+01 -0.0000000E+00 -0.0000000E+00
  0.6021684E+01  0.6021684E+01 -0.6021684E+01   0.1000000E+01 -0.0000000E+00 -0.0000000E+00
  0.6021684E+01  0.6021684E+01  0.6021684E+01   0.1000000E+01 -0.0000000E+00 -0.0000000E+00
 WIGNER-SEITZ-PRIMCELL_END
 WIGNER-SEITZ-CONVCELL
           4
 -0.6021684E+01 -0.6021684E+01  0.6021684E+01  -0.1000000E+01  0.0000000E+00  0.0000000E+00
 -0.6021684E+01  0.6021684E+01  0.6021684E+01  -0.1000000E+01  0.0000000E+00  0.0000000E+00
 -0.6021684E+01  0.6021684E+01 -0.6021684E+01  -0.1000000E+01  0.0000000E+00  0.0000000E+00
 -0.6021684E+01 -0.6021684E+01 -0.6021684E+01  -0.1000000E+01  0.0000000E+00  0.0000000E+00
           4
 -0.6021684E+01 -0.6021684E+01 -0.6021684E+01  -0.0000000E+00 -0.1000000E+01 -0.0000000E+00
  0.6021684E+01 -0.6021684E+01 -0.6021684E+01  -0.0000000E+00 -0.1000000E+01 -0.0000000E+00
  0.6021684E+01 -0.6021684E+01  0.6021684E+01  -0.0000000E+00 -0.1000000E+01 -0.0000000E+00
 -0.6021684E+01 -0.6021684E+01  0.6021684E+01  -0.0000000E+00 -0.1000000E+01 -0.0000000E+00
           4
 -0.6021684E+01  0.6021684E+01 -0.6021684E+01   0.0000000E+00  0.0000000E+00 -0.1000000E+01
  0.6021684E+01  0.6021684E+01 -0.6021684E+01   0.0000000E+00  0.0000000E+00 -0.1000000E+01
  0.6021684E+01 -0.6021684E+01 -0.6021684E+01   0.0000000E+00  0.0000000E+00 -0.1000000E+01
 -0.6021684E+01 -0.6021684E+01 -0.6021684E+01   0.0000000E+00  0.0000000E+00 -0.1000000E+01
           4
  0.6021684E+01 -0.6021684E+01  0.6021684E+01  -0.0000000E+00 -0.0000000E+00  0.1000000E+01
  0.6021684E+01  0.6021684E+01  0.6021684E+01  -0.0000000E+00 -0.0000000E+00  0.1000000E+01
 -0.6021684E+01  0.6021684E+01  0.6021684E+01  -0.0000000E+00 -0.0000000E+00  0.1000000E+01
 -0.6021684E+01 -0.6021684E+01  0.6021684E+01  -0.0000000E+00 -0.0000000E+00  0.1000000E+01
           4
 -0.6021684E+01  0.6021684E+01  0.6021684E+01   0.0000000E+00  0.1000000E+01  0.0000000E+00
  0.6021684E+01  0.6021684E+01  0.6021684E+01   0.0000000E+00  0.1000000E+01  0.0000000E+00
  0.6021684E+01  0.6021684E+01 -0.6021684E+01   0.0000000E+00  0.1000000E+01  0.0000000E+00
 -0.6021684E+01  0.6021684E+01 -0.6021684E+01   0.0000000E+00  0.1000000E+01  0.0000000E+00
           4
  0.6021684E+01 -0.6021684E+01  0.6021684E+01   0.1000000E+01 -0.0000000E+00 -0.0000000E+00
  0.6021684E+01 -0.6021684E+01 -0.6021684E+01   0.1000000E+01 -0.0000000E+00 -0.0000000E+00
  0.6021684E+01  0.6021684E+01 -0.6021684E+01   0.1000000E+01 -0.0000000E+00 -0.0000000E+00
  0.6021684E+01  0.6021684E+01  0.6021684E+01   0.1000000E+01 -0.0000000E+00 -0.0000000E+00
 WIGNER-SEITZ-CONVCELL_END
 BRILLOUIN-ZONE-PRIMCELL
           4
 -0.4151662E-01 -0.4151662E-01  0.4151662E-01  -0.1000000E+01 -0.8356766E-16  0.8356766E-16
 -0.4151662E-01  0.4151662E-01  0.4151662E-01  -0.1000000E+01 -0.8356766E-16  0.8356766E-16
 -0.4151662E-01  0.4151662E-01 -0.4151662E-01  -0.1000000E+01 -0.8356766E-16  0.8356766E-16
 -0.4151662E-01 -0.4151662E-01 -0.4151662E-01  -0.1000000E+01 -0.8356766E-16  0.8356766E-16
           4
 -0.4151662E-01 -0.4151662E-01 -0.4151662E-01  -0.0000000E+00 -0.1000000E+01 -0.4178383E-16
  0.4151662E-01 -0.4151662E-01 -0.4151662E-01  -0.0000000E+00 -0.1000000E+01 -0.4178383E-16
  0.4151662E-01 -0.4151662E-01  0.4151662E-01  -0.0000000E+00 -0.1000000E+01 -0.4178383E-16
 -0.4151662E-01 -0.4151662E-01  0.4151662E-01  -0.0000000E+00 -0.1000000E+01 -0.4178383E-16
           4
 -0.4151662E-01  0.4151662E-01 -0.4151662E-01   0.6290226E-16 -0.2111843E-16 -0.1000000E+01
  0.4151662E-01  0.4151662E-01 -0.4151662E-01   0.6290226E-16 -0.2111843E-16 -0.1000000E+01
  0.4151662E-01 -0.4151662E-01 -0.4151662E-01   0.6290226E-16 -0.2111843E-16 -0.1000000E+01
 -0.4151662E-01 -0.4151662E-01 -0.4151662E-01   0.6290226E-16 -0.2111843E-16 -0.1000000E+01
           4
 -0.4151662E-01 -0.4151662E-01  0.4151662E-01   0.6290226E-16 -0.6335529E-16  0.1000000E+01
  0.4151662E-01 -0.4151662E-01  0.4151662E-01   0.6290226E-16 -0.6335529E-16  0.1000000E+01
  0.4151662E-01  0.4151662E-01  0.4151662E-01   0.6290226E-16 -0.6335529E-16  0.1000000E+01
 -0.4151662E-01  0.4151662E-01  0.4151662E-01   0.6290226E-16 -0.6335529E-16  0.1000000E+01
           4
 -0.4151662E-01  0.4151662E-01  0.4151662E-01   0.0000000E+00  0.1000000E+01  0.4530290E-18
  0.4151662E-01  0.4151662E-01  0.4151662E-01   0.0000000E+00  0.1000000E+01  0.4530290E-18
  0.4151662E-01  0.4151662E-01 -0.4151662E-01   0.0000000E+00  0.1000000E+01  0.4530290E-18
 -0.4151662E-01  0.4151662E-01 -0.4151662E-01   0.0000000E+00  0.1000000E+01  0.4530290E-18
           4
  0.4151662E-01 -0.4151662E-01 -0.4151662E-01   0.1000000E+01 -0.8356766E-16  0.8356766E-16
  0.4151662E-01  0.4151662E-01 -0.4151662E-01   0.1000000E+01 -0.8356766E-16  0.8356766E-16
  0.4151662E-01  0.4151662E-01  0.4151662E-01   0.1000000E+01 -0.8356766E-16  0.8356766E-16
  0.4151662E-01 -0.4151662E-01  0.4151662E-01   0.1000000E+01 -0.8356766E-16  0.8356766E-16
 BRILLOUIN-ZONE-PRIMCELL_END
 BRILLOUIN-ZONE-CONVCELL
           4
 -0.4151662E-01 -0.4151662E-01  0.4151662E-01  -0.1000000E+01 -0.8356766E-16  0.8356766E-16
 -0.4151662E-01  0.4151662E-01  0.4151662E-01  -0.1000000E+01 -0.8356766E-16  0.8356766E-16
 -0.4151662E-01  0.4151662E-01 -0.4151662E-01  -0.1000000E+01 -0.8356766E-16  0.8356766E-16
 -0.4151662E-01 -0.4151662E-01 -0.4151662E-01  -0.1000000E+01 -0.8356766E-16  0.8356766E-16
           4
 -0.4151662E-01 -0.4151662E-01 -0.4151662E-01  -0.0000000E+00 -0.1000000E+01 -0.4178383E-16
  0.4151662E-01 -0.4151662E-01 -0.4151662E-01  -0.0000000E+00 -0.1000000E+01 -0.4178383E-16
  0.4151662E-01 -0.4151662E-01  0.4151662E-01  -0.0000000E+00 -0.1000000E+01 -0.4178383E-16
 -0.4151662E-01 -0.4151662E-01  0.4151662E-01  -0.0000000E+00 -0.1000000E+01 -0.4178383E-16
           4
 -0.4151662E-01  0.4151662E-01 -0.4151662E-01   0.6290226E-16 -0.2111843E-16 -0.1000000E+01
  0.4151662E-01  0.4151662E-01 -0.4151662E-01   0.6290226E-16 -0.2111843E-16 -0.1000000E+01
  0.4151662E-01 -0.4151662E-01 -0.4151662E-01   0.6290226E-16 -0.2111843E-16 -0.1000000E+01
 -0.4151662E-01 -0.4151662E-01 -0.4151662E-01   0.6290226E-16 -0.2111843E-16 -0.1000000E+01
           4
 -0.4151662E-01 -0.4151662E-01  0.4151662E-01   0.6290226E-16 -0.6335529E-16  0.1000000E+01
  0.4151662E-01 -0.4151662E-01  0.4151662E-01   0.6290226E-16 -0.6335529E-16  0.1000000E+01
  0.4151662E-01  0.4151662E-01  0.4151662E-01   0.6290226E-16 -0.6335529E-16  0.1000000E+01
 -0.4151662E-01  0.4151662E-01  0.4151662E-01   0.6290226E-16 -0.6335529E-16  0.1000000E+01
           4
 -0.4151662E-01  0.4151662E-01  0.4151662E-01   0.0000000E+00  0.1000000E+01  0.4530290E-18
  0.4151662E-01  0.4151662E-01  0.4151662E-01   0.0000000E+00  0.1000000E+01  0.4530290E-18
  0.4151662E-01  0.4151662E-01 -0.4151662E-01   0.0000000E+00  0.1000000E+01  0.4530290E-18
 -0.4151662E-01  0.4151662E-01 -0.4151662E-01   0.0000000E+00  0.1000000E+01  0.4530290E-18
           4
  0.4151662E-01 -0.4151662E-01 -0.4151662E-01   0.1000000E+01 -0.8356766E-16  0.8356766E-16
  0.4151662E-01  0.4151662E-01 -0.4151662E-01   0.1000000E+01 -0.8356766E-16  0.8356766E-16
  0.4151662E-01  0.4151662E-01  0.4151662E-01   0.1000000E+01 -0.8356766E-16  0.8356766E-16
  0.4151662E-01 -0.4151662E-01  0.4151662E-01   0.1000000E+01 -0.8356766E-16  0.8356766E-16
 BRILLOUIN-ZONE-CONVCELL_END
 ATOMS
   13    0.0000000000    0.0000000000    4.0120266550    0.0000000000   -0.0000000000   -0.0000317200
   13    0.0000000000    0.0000000000    8.0313384320    0.0000000000   -0.0000000000    0.0000317200
   13    0.0000000000    4.0120266550    0.0000000000   -0.0000000000   -0.0000317200   -0.0000000000
   13    0.0000000000    4.0030245230    4.0030245230   -0.0000000000    0.0000086600    0.0000086600
   13    0.0000000000    4.0030245230    8.0403405640    0.0000000000    0.0000086600   -0.0000086600
   13    0.0000000000    8.0313384320    0.0000000000   -0.0000000000    0.0000317200   -0.0000000000
   13    0.0000000000    8.0403405640    4.0030245230    0.0000000000   -0.0000086600    0.0000086600
   13    0.0000000000    8.0403405640    8.0403405640   -0.0000000000   -0.0000086600   -0.0000086600
   13    4.0120266550    0.0000000000    0.0000000000   -0.0000317200    0.0000000000    0.0000000000
   13    4.0030245230    0.0000000000    4.0030245230    0.0000086600   -0.0000000000    0.0000086600
   13    4.0030245230    0.0000000000    8.0403405640    0.0000086600    0.0000000000   -0.0000086600
   13    4.0030245230    4.0030245230    0.0000000000    0.0000086600    0.0000086600    0.0000000000
   13    4.0187877190    4.0187877190    4.0187877190   -0.0000229200   -0.0000229200   -0.0000229200
   13    4.0187877190    4.0187877190    8.0245773680   -0.0000229200   -0.0000229200    0.0000229200
   13    4.0030245230    8.0403405640    0.0000000000    0.0000086600   -0.0000086600    0.0000000000
   13    4.0187877190    8.0245773680    4.0187877190   -0.0000229200    0.0000229200   -0.0000229200
   13    4.0187877190    8.0245773680    8.0245773680   -0.0000229200    0.0000229200    0.0000229200
   13    8.0313384320    0.0000000000    0.0000000000    0.0000317200    0.0000000000    0.0000000000
   13    8.0403405640    0.0000000000    4.0030245230   -0.0000086600    0.0000000000    0.0000086600
   13    8.0403405640    0.0000000000    8.0403405640   -0.0000086600   -0.0000000000   -0.0000086600
   13    8.0403405640    4.0030245230    0.0000000000   -0.0000086600    0.0000086600    0.0000000000
   13    8.0245773680    4.0187877190    4.0187877190    0.0000229200   -0.0000229200   -0.0000229200
   13    8.0245773680    4.0187877190    8.0245773680    0.0000229200   -0.0000229200    0.0000229200