
     Program PWSCF v.7.3.1 starts on 31Jan2025 at 11:10:54 

     This program is part of the open-source Quantum ESPRESSO suite
     for quantum simulation of materials; please cite
         "P. Giannozzi et al., J. Phys.:Condens. Matter 21 395502 (2009);
         "P. Giannozzi et al., J. Phys.:Condens. Matter 29 465901 (2017);
         "P. Giannozzi et al., J. Chem. Phys. 152 154105 (2020);
          URL http://www.quantum-espresso.org", 
     in publications or presentations arising from this work. More details at
     http://www.quantum-espresso.org/quote

     Parallel version (MPI), running on     6 processors

     MPI processes distributed on     1 nodes
     2058 MiB available memory on the printing compute node when the environment starts

     Reading input from relax.in

     Current dimensions of program PWSCF are:
     Max number of different atomic species (ntypx) = 10
     Max number of k-points (npk) =  40000
     Max angular momentum in pseudopotentials (lmaxx) =  4
     file Mn.pbe-spn-kjpaw_psl.0.3.1.UPF: wavefunction(s)  3P 3D renormalized
     file Mn.pbe-spn-kjpaw_psl.0.3.1.UPF: wavefunction(s)  3P 3D renormalized
     file S.pbe-n-kjpaw_psl.1.0.0.UPF: wavefunction(s)  3S 3P renormalized
     Message from routine setup:
     using ibrav=0 with symmetry is DISCOURAGED, use correct ibrav instead

     R & G space division:  proc/nbgrp/npool/nimage =       6
     Subspace diagonalization in iterative solution of the eigenvalue problem:
     a serial algorithm will be used


     Parallelization info
     --------------------
     sticks:   dense  smooth     PW     G-vecs:    dense   smooth      PW
     Min         185     150     48                 2941     2116     382
     Max         188     151     50                 2942     2117     383
     Sum        1121     901    295                17651    12697    2297

     Using Slab Decomposition



     bravais-lattice index     =            0
     lattice parameter (alat)  =      14.7866  a.u.
     unit-cell volume          =     571.5148 (a.u.)^3
     number of atoms/cell      =            4
     number of atomic types    =            3
     number of electrons       =        42.00
     number of Kohn-Sham states=           25
     kinetic-energy cutoff     =      30.0000  Ry
     charge density cutoff     =     150.0000  Ry
     scf convergence threshold =      1.0E-10
     mixing beta               =       0.7000
     number of iterations used =            8  plain     mixing
     energy convergence thresh.=      1.0E-05
     force convergence thresh. =      1.0E-04
     Exchange-correlation= SLA  PW   PBX  PBC
                           (   1   4   3   4   0   0   0)
     nstep                     =           50


     celldm(1)=  14.786571  celldm(2)=   0.000000  celldm(3)=   0.000000
     celldm(4)=   0.000000  celldm(5)=   0.000000  celldm(6)=   0.000000

     crystal axes: (cart. coord. in units of alat)
               a(1) = (   1.000000   0.000000   0.000000 )  
               a(2) = (   0.250000   0.433013   0.000000 )  
               a(3) = (   0.250000   0.144338   0.408248 )  

     reciprocal axes: (cart. coord. in units 2 pi/alat)
               b(1) = (  1.000000 -0.577350 -0.408248 )  
               b(2) = (  0.000000  2.309401 -0.816496 )  
               b(3) = (  0.000000  0.000000  2.449490 )  


     PseudoPot. # 1 for Mn read from file:
     ./../../../pseudos/Mn.pbe-spn-kjpaw_psl.0.3.1.UPF
     MD5 check sum: ba19e6d7ccbc12830efad05ba8577d9c
     Pseudo is Projector augmented-wave + core cor, Zval = 15.0
     Generated using &quot;atomic&quot; code by A. Dal Corso  v.6.2.2
     Shape of augmentation charge: PSQ
     Using radial grid of 1187 points,  6 beta functions with: 
                l(1) =   0
                l(2) =   0
                l(3) =   1
                l(4) =   1
                l(5) =   2
                l(6) =   2
     Q(r) pseudized with 0 coefficients 


     PseudoPot. # 2 for Mn read from file:
     ./../../../pseudos/Mn.pbe-spn-kjpaw_psl.0.3.1.UPF
     MD5 check sum: ba19e6d7ccbc12830efad05ba8577d9c
     Pseudo is Projector augmented-wave + core cor, Zval = 15.0
     Generated using &quot;atomic&quot; code by A. Dal Corso  v.6.2.2
     Shape of augmentation charge: PSQ
     Using radial grid of 1187 points,  6 beta functions with: 
                l(1) =   0
                l(2) =   0
                l(3) =   1
                l(4) =   1
                l(5) =   2
                l(6) =   2
     Q(r) pseudized with 0 coefficients 


     PseudoPot. # 3 for S  read from file:
     ./../../../pseudos/S.pbe-n-kjpaw_psl.1.0.0.UPF
     MD5 check sum: fb45dfebcf3e72a4e1bd4a866ec2e262
     Pseudo is Projector augmented-wave + core cor, Zval =  6.0
     Generated using &quot;atomic&quot; code by A. Dal Corso  v.6.3
     Shape of augmentation charge: PSQ
     Using radial grid of 1151 points,  6 beta functions with: 
                l(1) =   0
                l(2) =   0
                l(3) =   1
                l(4) =   1
                l(5) =   2
                l(6) =   2
     Q(r) pseudized with 0 coefficients 


     atomic species   valence    mass     pseudopotential
     Mn1              15.00    54.93800     Mn( 1.00)
     Mn2              15.00    54.93800     Mn( 1.00)
     S                 6.00    32.06500     S ( 1.00)

      2 Sym. Ops. (no inversion) found


                                    s                        frac. trans.

      isym =  1     identity                                     

 cryst.   s( 1) = (     1          0          0      )
                  (     0          1          0      )
                  (     0          0          1      )

 cart.    s( 1) = (  1.0000000  0.0000000  0.0000000 )
                  (  0.0000000  1.0000000  0.0000000 )
                  (  0.0000000  0.0000000  1.0000000 )


      isym =  2     inv. 180 deg rotation - cryst. axis [1,1,0]  

 cryst.   s( 2) = (     1         -2          0      )
                  (     0         -1          0      )
                  (     0         -1          1      )

 cart.    s( 2) = (  0.5000001 -0.8660253 -0.0000000 )
                  ( -0.8660254 -0.5000001 -0.0000001 )
                  (  0.0000000  0.0000000  1.0000000 )


   Cartesian axes

     site n.     atom                  positions (alat units)
         1        Mn1    tau(   1) = (   0.7500000   0.4330127   0.3061862  )
         2        Mn2    tau(   2) = (   1.2500000   0.4330127   0.3061862  )
         3        S      tau(   3) = (   0.0000000   0.0000000   0.0000000  )
         4        S      tau(   4) = (   0.5000000   0.0000000   0.0000000  )

   Crystallographic axes

     site n.     atom                  positions (cryst. coord.)
         1        Mn1    tau(   1) = (  0.3750000  0.7500000  0.7500000  )
         2        Mn2    tau(   2) = (  0.8750000  0.7500000  0.7500000  )
         3        S      tau(   3) = (  0.0000000  0.0000000  0.0000000  )
         4        S      tau(   4) = (  0.5000000  0.0000000  0.0000000  )

     number of k points=    38  Gaussian smearing, width (Ry)=  0.0100
                       cart. coord. in units 2pi/alat
        k(    1) = (   0.0000000   0.0000000   0.0000000), wk =   0.0266667
        k(    2) = (   0.0000000   0.0000000   0.4898979), wk =   0.0533333
        k(    3) = (   0.0000000   0.0000000   0.9797958), wk =   0.0533333
        k(    4) = (   0.0000000   0.4618802  -0.1632993), wk =   0.0533333
        k(    5) = (   0.0000000   0.4618802   0.3265986), wk =   0.0533333
        k(    6) = (   0.0000000   0.4618802   0.8164966), wk =   0.0533333
        k(    7) = (   0.0000000   0.4618802  -1.1430951), wk =   0.0533333
        k(    8) = (   0.0000000   0.4618802  -0.6531972), wk =   0.0533333
        k(    9) = (   0.0000000   0.9237604  -0.3265986), wk =   0.0533333
        k(   10) = (   0.0000000   0.9237604   0.1632993), wk =   0.0533333
        k(   11) = (   0.0000000   0.9237604   0.6531973), wk =   0.0533333
        k(   12) = (   0.0000000   0.9237604  -1.3063944), wk =   0.0533333
        k(   13) = (   0.0000000   0.9237604  -0.8164965), wk =   0.0533333
        k(   14) = (   0.3333333  -0.1924501  -0.1360827), wk =   0.0533333
        k(   15) = (   0.3333333  -0.1924501   0.3538152), wk =   0.0533333
        k(   16) = (   0.3333333  -0.1924501   0.8437131), wk =   0.0533333
        k(   17) = (   0.3333333  -0.1924501  -1.1158786), wk =   0.0533333
        k(   18) = (   0.3333333  -0.1924501  -0.6259807), wk =   0.0533333
        k(   19) = (   0.3333333   0.2694301  -0.2993820), wk =   0.0533333
        k(   20) = (   0.3333333   0.2694301   0.1905159), wk =   0.0533333
        k(   21) = (   0.3333333   0.2694301   0.6804138), wk =   0.0533333
        k(   22) = (   0.3333333   0.2694301  -1.2791779), wk =   0.0533333
        k(   23) = (   0.3333333   0.2694301  -0.7892800), wk =   0.0533333
        k(   24) = (   0.3333333   0.7313103  -0.4626813), wk =   0.0533333
        k(   25) = (   0.3333333   0.7313103   0.0272166), wk =   0.0533333
        k(   26) = (   0.3333333   0.7313103   0.5171145), wk =   0.0533333
        k(   27) = (   0.3333333   0.7313103  -1.4424772), wk =   0.0533333
        k(   28) = (   0.3333333   0.7313103  -0.9525793), wk =   0.0533333
        k(   29) = (   0.3333333  -1.1162105   0.1905158), wk =   0.0533333
        k(   30) = (   0.3333333  -1.1162105   0.6804138), wk =   0.0533333
        k(   31) = (   0.3333333  -1.1162105   1.1703117), wk =   0.0533333
        k(   32) = (   0.3333333  -1.1162105  -0.7892800), wk =   0.0533333
        k(   33) = (   0.3333333  -1.1162105  -0.2993821), wk =   0.0533333
        k(   34) = (   0.3333333  -0.6543303   0.0272165), wk =   0.0533333
        k(   35) = (   0.3333333  -0.6543303   0.5171145), wk =   0.0533333
        k(   36) = (   0.3333333  -0.6543303   1.0070124), wk =   0.0533333
        k(   37) = (   0.3333333  -0.6543303  -0.9525793), wk =   0.0533333
        k(   38) = (   0.3333333  -0.6543303  -0.4626814), wk =   0.0533333

                       cryst. coord.
        k(    1) = (   0.0000000   0.0000000   0.0000000), wk =   0.0266667
        k(    2) = (   0.0000000   0.0000000   0.2000000), wk =   0.0533333
        k(    3) = (   0.0000000   0.0000000   0.4000000), wk =   0.0533333
        k(    4) = (   0.0000000   0.2000000   0.0000000), wk =   0.0533333
        k(    5) = (   0.0000000   0.2000000   0.2000000), wk =   0.0533333
        k(    6) = (   0.0000000   0.2000000   0.4000000), wk =   0.0533333
        k(    7) = (   0.0000000   0.2000000  -0.4000000), wk =   0.0533333
        k(    8) = (   0.0000000   0.2000000  -0.2000000), wk =   0.0533333
        k(    9) = (   0.0000000   0.4000000   0.0000000), wk =   0.0533333
        k(   10) = (   0.0000000   0.4000000   0.2000000), wk =   0.0533333
        k(   11) = (   0.0000000   0.4000000   0.4000000), wk =   0.0533333
        k(   12) = (   0.0000000   0.4000000  -0.4000000), wk =   0.0533333
        k(   13) = (   0.0000000   0.4000000  -0.2000000), wk =   0.0533333
        k(   14) = (   0.3333333  -0.0000000  -0.0000000), wk =   0.0533333
        k(   15) = (   0.3333333  -0.0000000   0.2000000), wk =   0.0533333
        k(   16) = (   0.3333333  -0.0000000   0.4000000), wk =   0.0533333
        k(   17) = (   0.3333333  -0.0000000  -0.4000000), wk =   0.0533333
        k(   18) = (   0.3333333  -0.0000000  -0.2000000), wk =   0.0533333
        k(   19) = (   0.3333333   0.2000000  -0.0000000), wk =   0.0533333
        k(   20) = (   0.3333333   0.2000000   0.2000000), wk =   0.0533333
        k(   21) = (   0.3333333   0.2000000   0.4000000), wk =   0.0533333
        k(   22) = (   0.3333333   0.2000000  -0.4000000), wk =   0.0533333
        k(   23) = (   0.3333333   0.2000000  -0.2000000), wk =   0.0533333
        k(   24) = (   0.3333333   0.4000000   0.0000000), wk =   0.0533333
        k(   25) = (   0.3333333   0.4000000   0.2000000), wk =   0.0533333
        k(   26) = (   0.3333333   0.4000000   0.4000000), wk =   0.0533333
        k(   27) = (   0.3333333   0.4000000  -0.4000000), wk =   0.0533333
        k(   28) = (   0.3333333   0.4000000  -0.2000000), wk =   0.0533333
        k(   29) = (   0.3333333  -0.4000000   0.0000000), wk =   0.0533333
        k(   30) = (   0.3333333  -0.4000000   0.2000000), wk =   0.0533333
        k(   31) = (   0.3333333  -0.4000000   0.4000000), wk =   0.0533333
        k(   32) = (   0.3333333  -0.4000000  -0.4000000), wk =   0.0533333
        k(   33) = (   0.3333333  -0.4000000  -0.2000000), wk =   0.0533333
        k(   34) = (   0.3333333  -0.2000000  -0.0000000), wk =   0.0533333
        k(   35) = (   0.3333333  -0.2000000   0.2000000), wk =   0.0533333
        k(   36) = (   0.3333333  -0.2000000   0.4000000), wk =   0.0533333
        k(   37) = (   0.3333333  -0.2000000  -0.4000000), wk =   0.0533333
        k(   38) = (   0.3333333  -0.2000000  -0.2000000), wk =   0.0533333

     Dense  grid:    17651 G-vectors     FFT dimensions: (  60,  30,  30)

     Smooth grid:    12697 G-vectors     FFT dimensions: (  54,  25,  25)

     Dynamical RAM for                 wfc:       0.10 MB

     Dynamical RAM for     wfc (w. buffer):       3.93 MB

     Dynamical RAM for           str. fact:       0.13 MB

     Dynamical RAM for           local pot:       0.00 MB

     Dynamical RAM for          nlocal pot:       0.29 MB

     Dynamical RAM for                qrad:       2.95 MB

     Dynamical RAM for          rho,v,vnew:       0.34 MB

     Dynamical RAM for               rhoin:       0.11 MB

     Dynamical RAM for            rho*nmix:       0.72 MB

     Dynamical RAM for           G-vectors:       0.18 MB

     Dynamical RAM for          h,s,v(r/c):       0.11 MB

     Dynamical RAM for          <psi|beta>:       0.03 MB

     Dynamical RAM for                 psi:       0.20 MB

     Dynamical RAM for                hpsi:       0.20 MB

     Dynamical RAM for                spsi:       0.20 MB

     Dynamical RAM for      wfcinit/wfcrot:       0.24 MB

     Dynamical RAM for           addusdens:       8.44 MB

     Dynamical RAM for          addusforce:       8.56 MB

     Estimated static dynamical RAM per process >       8.47 MB

     Estimated max dynamical RAM per process >      17.74 MB

     Estimated total dynamical RAM >     106.46 MB

     Check: negative core charge=   -0.000237

     Initial potential from superposition of free atoms

     starting charge      41.9989, renormalised to      42.0000
     Starting wfcs are   28 randomized atomic wfcs
     Checking if some PAW data can be deallocated... 
       PAW data deallocated on    4 nodes for type:  1
       PAW data deallocated on    4 nodes for type:  2
       PAW data deallocated on    4 nodes for type:  3

     total cpu time spent up to now is        1.9 secs

     Self-consistent Calculation

     iteration #  1     ecut=    30.00 Ry     beta= 0.70
     Davidson diagonalization with overlap

---- Real-time Memory Report at c_bands before calling an iterative solver
            52 MiB given to the printing process from OS
             0 MiB allocation reported by mallinfo(arena+hblkhd)
          1857 MiB available memory on the node where the printing process lives
------------------
     ethr =  1.00E-02,  avg # of iterations =  2.0

     Threshold (ethr) on eigenvalues was too large:
     Diagonalizing with lowered threshold

     Davidson diagonalization with overlap

---- Real-time Memory Report at c_bands before calling an iterative solver
            56 MiB given to the printing process from OS
             0 MiB allocation reported by mallinfo(arena+hblkhd)
          1840 MiB available memory on the node where the printing process lives
------------------
     ethr =  4.31E-04,  avg # of iterations =  4.0

     total cpu time spent up to now is        4.5 secs

     total energy              =    -705.29477656 Ry
     estimated scf accuracy    <       0.13387151 Ry

     iteration #  2     ecut=    30.00 Ry     beta= 0.70
     Davidson diagonalization with overlap

---- Real-time Memory Report at c_bands before calling an iterative solver
            57 MiB given to the printing process from OS
             0 MiB allocation reported by mallinfo(arena+hblkhd)
          1841 MiB available memory on the node where the printing process lives
------------------
     ethr =  3.19E-04,  avg # of iterations =  5.1

     total cpu time spent up to now is        6.1 secs

     total energy              =    -705.23002029 Ry
     estimated scf accuracy    <       0.43187841 Ry

     iteration #  3     ecut=    30.00 Ry     beta= 0.70
     Davidson diagonalization with overlap

---- Real-time Memory Report at c_bands before calling an iterative solver
            58 MiB given to the printing process from OS
             0 MiB allocation reported by mallinfo(arena+hblkhd)
          1840 MiB available memory on the node where the printing process lives
------------------
     ethr =  3.19E-04,  avg # of iterations =  6.7

     total cpu time spent up to now is        7.9 secs

     total energy              =    -705.06661614 Ry
     estimated scf accuracy    <      10.56892159 Ry

     iteration #  4     ecut=    30.00 Ry     beta= 0.70
     Davidson diagonalization with overlap

---- Real-time Memory Report at c_bands before calling an iterative solver
            58 MiB given to the printing process from OS
             0 MiB allocation reported by mallinfo(arena+hblkhd)
          1838 MiB available memory on the node where the printing process lives
------------------
     ethr =  3.19E-04,  avg # of iterations =  5.7

     total cpu time spent up to now is        9.5 secs

     total energy              =    -705.29389897 Ry
     estimated scf accuracy    <       1.15580510 Ry

     iteration #  5     ecut=    30.00 Ry     beta= 0.70
     Davidson diagonalization with overlap

---- Real-time Memory Report at c_bands before calling an iterative solver
            58 MiB given to the printing process from OS
             0 MiB allocation reported by mallinfo(arena+hblkhd)
          1844 MiB available memory on the node where the printing process lives
------------------
     ethr =  3.19E-04,  avg # of iterations =  2.0

     total cpu time spent up to now is       10.9 secs

     total energy              =    -705.31946231 Ry
     estimated scf accuracy    <       0.00951946 Ry

     iteration #  6     ecut=    30.00 Ry     beta= 0.70
     Davidson diagonalization with overlap

---- Real-time Memory Report at c_bands before calling an iterative solver
            58 MiB given to the printing process from OS
             0 MiB allocation reported by mallinfo(arena+hblkhd)
          1758 MiB available memory on the node where the printing process lives
------------------
     ethr =  2.27E-05,  avg # of iterations =  5.9

     total cpu time spent up to now is       12.5 secs

     total energy              =    -705.32169430 Ry
     estimated scf accuracy    <       0.00142078 Ry

     iteration #  7     ecut=    30.00 Ry     beta= 0.70
     Davidson diagonalization with overlap

---- Real-time Memory Report at c_bands before calling an iterative solver
            59 MiB given to the printing process from OS
             0 MiB allocation reported by mallinfo(arena+hblkhd)
          1821 MiB available memory on the node where the printing process lives
------------------
     ethr =  3.38E-06,  avg # of iterations =  2.5

     total cpu time spent up to now is       13.8 secs

     total energy              =    -705.32182792 Ry
     estimated scf accuracy    <       0.00108388 Ry

     iteration #  8     ecut=    30.00 Ry     beta= 0.70
     Davidson diagonalization with overlap

---- Real-time Memory Report at c_bands before calling an iterative solver
            59 MiB given to the printing process from OS
             0 MiB allocation reported by mallinfo(arena+hblkhd)
          1819 MiB available memory on the node where the printing process lives
------------------
     ethr =  2.58E-06,  avg # of iterations =  2.7

     total cpu time spent up to now is       15.1 secs

     total energy              =    -705.32193561 Ry
     estimated scf accuracy    <       0.00185294 Ry

     iteration #  9     ecut=    30.00 Ry     beta= 0.70
     Davidson diagonalization with overlap

---- Real-time Memory Report at c_bands before calling an iterative solver
            59 MiB given to the printing process from OS
             0 MiB allocation reported by mallinfo(arena+hblkhd)
          1817 MiB available memory on the node where the printing process lives
------------------
     ethr =  2.58E-06,  avg # of iterations =  1.0

     total cpu time spent up to now is       16.3 secs

     total energy              =    -705.32185693 Ry
     estimated scf accuracy    <       0.00146827 Ry

     iteration # 10     ecut=    30.00 Ry     beta= 0.70
     Davidson diagonalization with overlap

---- Real-time Memory Report at c_bands before calling an iterative solver
            59 MiB given to the printing process from OS
             0 MiB allocation reported by mallinfo(arena+hblkhd)
          1819 MiB available memory on the node where the printing process lives
------------------
     ethr =  2.58E-06,  avg # of iterations =  1.0

     total cpu time spent up to now is       17.4 secs

     total energy              =    -705.32186298 Ry
     estimated scf accuracy    <       0.00043888 Ry

     iteration # 11     ecut=    30.00 Ry     beta= 0.70
     Davidson diagonalization with overlap

---- Real-time Memory Report at c_bands before calling an iterative solver
            59 MiB given to the printing process from OS
             0 MiB allocation reported by mallinfo(arena+hblkhd)
          1822 MiB available memory on the node where the printing process lives
------------------
     ethr =  1.04E-06,  avg # of iterations =  1.0

     total cpu time spent up to now is       18.5 secs

     total energy              =    -705.32182384 Ry
     estimated scf accuracy    <       0.00029637 Ry

     iteration # 12     ecut=    30.00 Ry     beta= 0.70
     Davidson diagonalization with overlap

---- Real-time Memory Report at c_bands before calling an iterative solver
            59 MiB given to the printing process from OS
             0 MiB allocation reported by mallinfo(arena+hblkhd)
          1826 MiB available memory on the node where the printing process lives
------------------
     ethr =  7.06E-07,  avg # of iterations =  2.6

     total cpu time spent up to now is       19.8 secs

     total energy              =    -705.32184753 Ry
     estimated scf accuracy    <       0.00000164 Ry

     iteration # 13     ecut=    30.00 Ry     beta= 0.70
     Davidson diagonalization with overlap

---- Real-time Memory Report at c_bands before calling an iterative solver
            59 MiB given to the printing process from OS
             0 MiB allocation reported by mallinfo(arena+hblkhd)
          1827 MiB available memory on the node where the printing process lives
------------------
     ethr =  3.91E-09,  avg # of iterations =  7.6

     total cpu time spent up to now is       22.1 secs

     total energy              =    -705.32185105 Ry
     estimated scf accuracy    <       0.00000394 Ry

     iteration # 14     ecut=    30.00 Ry     beta= 0.70
     Davidson diagonalization with overlap

---- Real-time Memory Report at c_bands before calling an iterative solver
            59 MiB given to the printing process from OS
             0 MiB allocation reported by mallinfo(arena+hblkhd)
          1841 MiB available memory on the node where the printing process lives
------------------
     ethr =  3.91E-09,  avg # of iterations =  3.6

     total cpu time spent up to now is       23.5 secs

     total energy              =    -705.32185143 Ry
     estimated scf accuracy    <       0.00000215 Ry

     iteration # 15     ecut=    30.00 Ry     beta= 0.70
     Davidson diagonalization with overlap

---- Real-time Memory Report at c_bands before calling an iterative solver
            59 MiB given to the printing process from OS
             0 MiB allocation reported by mallinfo(arena+hblkhd)
          1839 MiB available memory on the node where the printing process lives
------------------
     ethr =  3.91E-09,  avg # of iterations =  1.0

     total cpu time spent up to now is       24.6 secs

     total energy              =    -705.32185143 Ry
     estimated scf accuracy    <       0.00000024 Ry

     iteration # 16     ecut=    30.00 Ry     beta= 0.70
     Davidson diagonalization with overlap

---- Real-time Memory Report at c_bands before calling an iterative solver
            59 MiB given to the printing process from OS
             0 MiB allocation reported by mallinfo(arena+hblkhd)
          1841 MiB available memory on the node where the printing process lives
------------------
     ethr =  5.81E-10,  avg # of iterations =  3.5

     total cpu time spent up to now is       26.0 secs

     total energy              =    -705.32185148 Ry
     estimated scf accuracy    <       0.00000003 Ry

     iteration # 17     ecut=    30.00 Ry     beta= 0.70
     Davidson diagonalization with overlap

---- Real-time Memory Report at c_bands before calling an iterative solver
            59 MiB given to the printing process from OS
             0 MiB allocation reported by mallinfo(arena+hblkhd)
          1841 MiB available memory on the node where the printing process lives
------------------
     ethr =  6.24E-11,  avg # of iterations =  3.3

     total cpu time spent up to now is       27.4 secs

     total energy              =    -705.32185147 Ry
     estimated scf accuracy    <       0.00000003 Ry

     iteration # 18     ecut=    30.00 Ry     beta= 0.70
     Davidson diagonalization with overlap

---- Real-time Memory Report at c_bands before calling an iterative solver
            59 MiB given to the printing process from OS
             0 MiB allocation reported by mallinfo(arena+hblkhd)
          1847 MiB available memory on the node where the printing process lives
------------------
     ethr =  6.24E-11,  avg # of iterations =  1.8

     total cpu time spent up to now is       28.6 secs

     total energy              =    -705.32185148 Ry
     estimated scf accuracy    <          5.7E-10 Ry

     iteration # 19     ecut=    30.00 Ry     beta= 0.70
     Davidson diagonalization with overlap

---- Real-time Memory Report at c_bands before calling an iterative solver
            59 MiB given to the printing process from OS
             0 MiB allocation reported by mallinfo(arena+hblkhd)
          1846 MiB available memory on the node where the printing process lives
------------------
     ethr =  1.36E-12,  avg # of iterations =  6.8

     total cpu time spent up to now is       30.5 secs

     total energy              =    -705.32185148 Ry
     estimated scf accuracy    <          1.7E-10 Ry

     iteration # 20     ecut=    30.00 Ry     beta= 0.70
     Davidson diagonalization with overlap

---- Real-time Memory Report at c_bands before calling an iterative solver
            59 MiB given to the printing process from OS
             0 MiB allocation reported by mallinfo(arena+hblkhd)
          1839 MiB available memory on the node where the printing process lives
------------------
     ethr =  4.16E-13,  avg # of iterations =  1.6

     total cpu time spent up to now is       31.7 secs

     End of self-consistent calculation

          k = 0.0000 0.0000 0.0000 (  1617 PWs)   bands (ev):

   -72.2414 -72.2409 -40.9859 -40.9854 -40.9846 -40.9843 -40.9770 -40.9733
    -6.5670  -5.9175   1.9991   3.5073   3.5087   3.5117   3.6607   3.6613
     6.6766   6.6785   6.8548   6.8554   6.9386   8.2896   8.2908   9.2686
     9.2731

     occupation numbers 
     1.0000   1.0000   1.0000   1.0000   1.0000   1.0000   1.0000   1.0000
     1.0000   1.0000   1.0000   1.0000   1.0000   1.0000   1.0000   1.0000
     1.0000   1.0000   0.9997   0.9997   0.9945   0.0000   0.0000   0.0000
     0.0000

          k = 0.0000 0.0000 0.4899 (  1600 PWs)   bands (ev):

   -72.2411 -72.2409 -40.9868 -40.9866 -40.9851 -40.9841 -40.9766 -40.9733
    -6.3583  -5.8502   2.2624   2.9285   3.3336   3.5798   3.5816   3.6833
     6.5263   6.6848   6.6877   6.8737   6.9782   7.9550   7.9695   8.1623
     9.0007

     occupation numbers 
     1.0000   1.0000   1.0000   1.0000   1.0000   1.0000   1.0000   1.0000
     1.0000   1.0000   1.0000   1.0000   1.0000   1.0000   1.0000   1.0000
     1.0000   1.0000   1.0000   0.9993   0.9833   0.0000   0.0000   0.0000
     0.0000

          k = 0.0000 0.0000 0.9798 (  1578 PWs)   bands (ev):

   -72.2409 -72.2406 -40.9887 -40.9877 -40.9854 -40.9846 -40.9757 -40.9737
    -5.9862  -5.7300   2.0978   2.1279   3.6183   3.6541   3.6548   3.7379
     6.2815   6.7861   6.7912   6.9706   7.0701   7.1303   7.5222   7.5596
     8.4183

     occupation numbers 
     1.0000   1.0000   1.0000   1.0000   1.0000   1.0000   1.0000   1.0000
     1.0000   1.0000   1.0000   1.0000   1.0000   1.0000   1.0000   1.0000
     1.0000   1.0000   1.0000   0.9863   0.8796   0.7078   0.0002   0.0000
     0.0000

          k = 0.0000 0.4619-0.1633 (  1600 PWs)   bands (ev):

   -72.2411 -72.2409 -40.9867 -40.9858 -40.9854 -40.9848 -40.9763 -40.9734
    -6.3583  -5.8502   2.2626   2.9289   3.3338   3.5788   3.5818   3.6828
     6.5272   6.6855   6.6874   6.8742   6.9769   7.9558   7.9688   8.1634
     9.0000

     occupation numbers 
     1.0000   1.0000   1.0000   1.0000   1.0000   1.0000   1.0000   1.0000
     1.0000   1.0000   1.0000   1.0000   1.0000   1.0000   1.0000   1.0000
     1.0000   1.0000   1.0000   0.9993   0.9839   0.0000   0.0000   0.0000
     0.0000

          k = 0.0000 0.4619 0.3266 (  1598 PWs)   bands (ev):

   -72.2411 -72.2409 -40.9863 -40.9860 -40.9853 -40.9849 -40.9761 -40.9738
    -6.2899  -5.9298   2.4194   2.8562   3.2359   3.5738   3.5765   3.6990
     6.4635   6.5986   6.7885   6.8237   7.2093   7.7373   8.4816   8.5204
     8.5309

     occupation numbers 
     1.0000   1.0000   1.0000   1.0000   1.0000   1.0000   1.0000   1.0000
     1.0000   1.0000   1.0000   1.0000   1.0000   1.0000   1.0000   1.0000
     1.0000   1.0000   1.0000   0.9999   0.3921   0.0000   0.0000   0.0000
     0.0000

          k = 0.0000 0.4619 0.8165 (  1588 PWs)   bands (ev):

   -72.2409 -72.2408 -40.9879 -40.9873 -40.9855 -40.9852 -40.9753 -40.9743
    -5.9688  -5.8556   2.3462   2.3639   3.3400   3.4867   3.6513   3.6885
     6.4371   6.4466   6.8638   6.9437   7.1395   7.2904   7.6692   8.0073
     8.1161

     occupation numbers 
     1.0000   1.0000   1.0000   1.0000   1.0000   1.0000   1.0000   1.0000
     1.0000   1.0000   1.0000   1.0000   1.0000   1.0000   1.0000   1.0000
     1.0000   1.0000   0.9995   0.9936   0.6744   0.1320   0.0000   0.0000
     0.0000

          k = 0.0000 0.4619-1.1431 (  1573 PWs)   bands (ev):

   -72.2407 -72.2407 -40.9886 -40.9879 -40.9860 -40.9853 -40.9752 -40.9741
    -5.8342  -5.7273   2.3014   2.3275   3.2248   3.2545   3.7050   3.7157
     6.2929   6.5974   6.7497   6.7728   7.0448   7.0860   7.4676   7.7785
     7.8530

     occupation numbers 
     1.0000   1.0000   1.0000   1.0000   1.0000   1.0000   1.0000   1.0000
     1.0000   1.0000   1.0000   1.0000   1.0000   1.0000   1.0000   1.0000
     1.0000   1.0000   1.0000   1.0000   0.9246   0.8432   0.0015   0.0000
     0.0000

          k = 0.0000 0.4619-0.6532 (  1585 PWs)   bands (ev):

   -72.2410 -72.2407 -40.9876 -40.9875 -40.9856 -40.9851 -40.9759 -40.9737
    -6.0916  -5.7257   2.5665   2.6669   2.8454   3.3780   3.6710   3.6771
     6.3055   6.5655   6.6580   6.8596   7.0634   7.4477   7.5769   7.9304
     7.9800

     occupation numbers 
     1.0000   1.0000   1.0000   1.0000   1.0000   1.0000   1.0000   1.0000
     1.0000   1.0000   1.0000   1.0000   1.0000   1.0000   1.0000   1.0000
     1.0000   1.0000   1.0000   0.9996   0.8929   0.0030   0.0000   0.0000
     0.0000

          k = 0.0000 0.9238-0.3266 (  1578 PWs)   bands (ev):

   -72.2409 -72.2406 -40.9877 -40.9876 -40.9860 -40.9854 -40.9752 -40.9741
    -5.9862  -5.7300   2.0985   2.1281   3.6182   3.6531   3.6547   3.7372
     6.2825   6.7873   6.7912   6.9690   7.0711   7.1318   7.5212   7.5600
     8.4160

     occupation numbers 
     1.0000   1.0000   1.0000   1.0000   1.0000   1.0000   1.0000   1.0000
     1.0000   1.0000   1.0000   1.0000   1.0000   1.0000   1.0000   1.0000
     1.0000   1.0000   1.0000   0.9869   0.8776   0.7025   0.0002   0.0000
     0.0000

          k = 0.0000 0.9238 0.1633 (  1588 PWs)   bands (ev):

   -72.2409 -72.2408 -40.9868 -40.9867 -40.9863 -40.9862 -40.9750 -40.9745
    -5.9688  -5.8556   2.3468   2.3641   3.3399   3.4862   3.6510   3.6880
     6.4365   6.4464   6.8640   6.9446   7.1410   7.2920   7.6688   8.0068
     8.1152

     occupation numbers 
     1.0000   1.0000   1.0000   1.0000   1.0000   1.0000   1.0000   1.0000
     1.0000   1.0000   1.0000   1.0000   1.0000   1.0000   1.0000   1.0000
     1.0000   1.0000   0.9995   0.9934   0.6687   0.1285   0.0000   0.0000
     0.0000

          k = 0.0000 0.9238 0.6532 (  1582 PWs)   bands (ev):

   -72.2408 -72.2407 -40.9876 -40.9876 -40.9860 -40.9854 -40.9749 -40.9744
    -5.9219  -5.7985   2.1076   2.1272   3.5333   3.6786   3.7158   3.7181
     6.2352   6.7572   6.8253   7.0411   7.0440   7.3254   7.5662   7.5706
     8.0924

     occupation numbers 
     1.0000   1.0000   1.0000   1.0000   1.0000   1.0000   1.0000   1.0000
     1.0000   1.0000   1.0000   1.0000   1.0000   1.0000   1.0000   1.0000
     1.0000   1.0000   0.9999   0.9299   0.9257   0.0693   0.0000   0.0000
     0.0000

          k = 0.0000 0.9238-1.3064 (  1588 PWs)   bands (ev):

   -72.2408 -72.2408 -40.9879 -40.9877 -40.9865 -40.9861 -40.9750 -40.9744
    -5.8461  -5.7139   2.2133   2.2614   3.2952   3.3388   3.6969   3.7425
     6.2467   6.6231   6.7912   6.8895   6.9047   7.0014   7.5699   7.6481
     7.8785

     occupation numbers 
     1.0000   1.0000   1.0000   1.0000   1.0000   1.0000   1.0000   1.0000
     1.0000   1.0000   1.0000   1.0000   1.0000   1.0000   1.0000   1.0000
     1.0000   1.0000   1.0000   0.9989   0.9981   0.9704   0.0000   0.0000
     0.0000

          k = 0.0000 0.9238-0.8165 (  1573 PWs)   bands (ev):

   -72.2407 -72.2407 -40.9877 -40.9877 -40.9865 -40.9861 -40.9749 -40.9743
    -5.8342  -5.7274   2.3016   2.3283   3.2244   3.2537   3.7050   3.7154
     6.2927   6.5976   6.7503   6.7735   7.0450   7.0871   7.4670   7.7775
     7.8526

     occupation numbers 
     1.0000   1.0000   1.0000   1.0000   1.0000   1.0000   1.0000   1.0000
     1.0000   1.0000   1.0000   1.0000   1.0000   1.0000   1.0000   1.0000
     1.0000   1.0000   1.0000   1.0000   0.9242   0.8403   0.0016   0.0000
     0.0000

          k = 0.3333-0.1925-0.1361 (  1605 PWs)   bands (ev):

   -72.2411 -72.2411 -40.9859 -40.9853 -40.9846 -40.9841 -40.9761 -40.9741
    -6.4172  -6.0947   2.3411   3.0831   3.5627   3.5638   3.6277   3.6285
     6.6909   6.6925   6.7196   6.7205   7.3959   8.3866   8.5726   8.5739
     9.0837

     occupation numbers 
     1.0000   1.0000   1.0000   1.0000   1.0000   1.0000   1.0000   1.0000
     1.0000   1.0000   1.0000   1.0000   1.0000   1.0000   1.0000   1.0000
     1.0000   1.0000   1.0000   1.0000   0.0134   0.0000   0.0000   0.0000
     0.0000

          k = 0.3333-0.1925 0.3538 (  1594 PWs)   bands (ev):

   -72.2411 -72.2408 -40.9870 -40.9862 -40.9847 -40.9845 -40.9761 -40.9737
    -6.3269  -5.8875   2.3763   2.9282   3.2138   3.5636   3.5654   3.7091
     6.5028   6.6557   6.7206   6.8011   7.1708   7.7225   8.3931   8.4834
     8.6240

     occupation numbers 
     1.0000   1.0000   1.0000   1.0000   1.0000   1.0000   1.0000   1.0000
     1.0000   1.0000   1.0000   1.0000   1.0000   1.0000   1.0000   1.0000
     1.0000   1.0000   1.0000   1.0000   0.5504   0.0000   0.0000   0.0000
     0.0000

          k = 0.3333-0.1925 0.8437 (  1583 PWs)   bands (ev):

   -72.2409 -72.2407 -40.9882 -40.9882 -40.9852 -40.9848 -40.9756 -40.9741
    -5.9862  -5.7354   2.3488   2.4248   3.0666   3.5009   3.6454   3.7371
     6.3064   6.5210   6.8293   6.9213   6.9911   7.2662   7.6120   7.8224
     8.1013

     occupation numbers 
     1.0000   1.0000   1.0000   1.0000   1.0000   1.0000   1.0000   1.0000
     1.0000   1.0000   1.0000   1.0000   1.0000   1.0000   1.0000   1.0000
     1.0000   1.0000   0.9999   0.9967   0.9769   0.1933   0.0000   0.0000
     0.0000

          k = 0.3333-0.1925-1.1159 (  1581 PWs)   bands (ev):

   -72.2408 -72.2408 -40.9887 -40.9877 -40.9853 -40.9847 -40.9750 -40.9746
    -5.8644  -5.8593   2.2034   2.2259   3.3373   3.6535   3.6926   3.7000
     6.2646   6.6877   6.7546   7.0429   7.0544   7.3803   7.6721   7.7848
     7.8560

     occupation numbers 
     1.0000   1.0000   1.0000   1.0000   1.0000   1.0000   1.0000   1.0000
     1.0000   1.0000   1.0000   1.0000   1.0000   1.0000   1.0000   1.0000
     1.0000   1.0000   1.0000   0.9273   0.9093   0.0201   0.0000   0.0000
     0.0000

          k = 0.3333-0.1925-0.6260 (  1602 PWs)   bands (ev):

   -72.2410 -72.2410 -40.9870 -40.9863 -40.9849 -40.9843 -40.9754 -40.9746
    -6.1492  -6.0802   2.5041   2.6221   3.4294   3.5582   3.6190   3.6552
     6.4036   6.5655   6.8279   6.9015   7.6779   7.7233   8.0448   8.1279
     8.3818

     occupation numbers 
     1.0000   1.0000   1.0000   1.0000   1.0000   1.0000   1.0000   1.0000
     1.0000   1.0000   1.0000   1.0000   1.0000   1.0000   1.0000   1.0000
     1.0000   1.0000   0.9999   0.9983   0.0000   0.0000   0.0000   0.0000
     0.0000

          k = 0.3333 0.2694-0.2994 (  1594 PWs)   bands (ev):

   -72.2411 -72.2408 -40.9863 -40.9860 -40.9853 -40.9849 -40.9762 -40.9736
    -6.3269  -5.8875   2.3761   2.9292   3.2143   3.5633   3.5646   3.7085
     6.5016   6.6562   6.7218   6.8026   7.1694   7.7234   8.3924   8.4845
     8.6224

     occupation numbers 
     1.0000   1.0000   1.0000   1.0000   1.0000   1.0000   1.0000   1.0000
     1.0000   1.0000   1.0000   1.0000   1.0000   1.0000   1.0000   1.0000
     1.0000   1.0000   1.0000   1.0000   0.5562   0.0000   0.0000   0.0000
     0.0000

          k = 0.3333 0.2694 0.1905 (  1598 PWs)   bands (ev):

   -72.2411 -72.2409 -40.9865 -40.9858 -40.9853 -40.9848 -40.9766 -40.9734
    -6.3739  -5.8318   2.2624   2.9734   3.2896   3.5685   3.5750   3.6968
     6.5352   6.6494   6.7169   6.8496   6.9603   7.8913   8.0367   8.2328
     8.9508

     occupation numbers 
     1.0000   1.0000   1.0000   1.0000   1.0000   1.0000   1.0000   1.0000
     1.0000   1.0000   1.0000   1.0000   1.0000   1.0000   1.0000   1.0000
     1.0000   1.0000   1.0000   0.9997   0.9897   0.0000   0.0000   0.0000
     0.0000

          k = 0.3333 0.2694 0.6804 (  1583 PWs)   bands (ev):

   -72.2410 -72.2406 -40.9876 -40.9874 -40.9855 -40.9852 -40.9759 -40.9737
    -6.0880  -5.7297   2.5540   2.6259   2.8960   3.3855   3.6686   3.6797
     6.3356   6.5465   6.6700   6.8399   7.0838   7.4698   7.5569   7.9294
     8.0054

     occupation numbers 
     1.0000   1.0000   1.0000   1.0000   1.0000   1.0000   1.0000   1.0000
     1.0000   1.0000   1.0000   1.0000   1.0000   1.0000   1.0000   1.0000
     1.0000   1.0000   1.0000   0.9998   0.8487   0.0014   0.0001   0.0000
     0.0000

          k = 0.3333 0.2694-1.2792 (  1576 PWs)   bands (ev):

   -72.2408 -72.2407 -40.9887 -40.9878 -40.9860 -40.9854 -40.9752 -40.9741
    -5.8408  -5.7199   2.2532   2.2935   3.2808   3.2856   3.7042   3.7246
     6.2782   6.6090   6.7818   6.8115   7.0133   7.0379   7.5056   7.7880
     7.8310

     occupation numbers 
     1.0000   1.0000   1.0000   1.0000   1.0000   1.0000   1.0000   1.0000
     1.0000   1.0000   1.0000   1.0000   1.0000   1.0000   1.0000   1.0000
     1.0000   1.0000   1.0000   0.9999   0.9611   0.9342   0.0004   0.0000
     0.0000

          k = 0.3333 0.2694-0.7893 (  1589 PWs)   bands (ev):

   -72.2410 -72.2408 -40.9878 -40.9872 -40.9855 -40.9852 -40.9755 -40.9741
    -6.0033  -5.8200   2.3745   2.3960   3.2632   3.4924   3.6448   3.6927
     6.4436   6.4562   6.7800   6.9193   7.1402   7.3536   7.5694   8.0325
     8.0983

     occupation numbers 
     1.0000   1.0000   1.0000   1.0000   1.0000   1.0000   1.0000   1.0000
     1.0000   1.0000   1.0000   1.0000   1.0000   1.0000   1.0000   1.0000
     1.0000   1.0000   1.0000   0.9969   0.6715   0.0380   0.0000   0.0000
     0.0000

          k = 0.3333 0.7313-0.4627 (  1583 PWs)   bands (ev):

   -72.2409 -72.2407 -40.9877 -40.9874 -40.9859 -40.9856 -40.9754 -40.9741
    -5.9862  -5.7354   2.3494   2.4254   3.0663   3.5007   3.6445   3.7365
     6.3076   6.5206   6.8300   6.9230   6.9902   7.2673   7.6122   7.8218
     8.0998

     occupation numbers 
     1.0000   1.0000   1.0000   1.0000   1.0000   1.0000   1.0000   1.0000
     1.0000   1.0000   1.0000   1.0000   1.0000   1.0000   1.0000   1.0000
     1.0000   1.0000   0.9999   0.9966   0.9775   0.1903   0.0000   0.0000
     0.0000

          k = 0.3333 0.7313 0.0272 (  1583 PWs)   bands (ev):

   -72.2410 -72.2406 -40.9869 -40.9866 -40.9863 -40.9860 -40.9756 -40.9739
    -6.0880  -5.7298   2.5546   2.6264   2.8961   3.3844   3.6687   3.6790
     6.3366   6.5456   6.6683   6.8416   7.0847   7.4709   7.5578   7.9288
     8.0041

     occupation numbers 
     1.0000   1.0000   1.0000   1.0000   1.0000   1.0000   1.0000   1.0000
     1.0000   1.0000   1.0000   1.0000   1.0000   1.0000   1.0000   1.0000
     1.0000   1.0000   1.0000   0.9998   0.8464   0.0014   0.0000   0.0000
     0.0000

          k = 0.3333 0.7313 0.5171 (  1587 PWs)   bands (ev):

   -72.2409 -72.2407 -40.9876 -40.9875 -40.9858 -40.9857 -40.9753 -40.9744
    -5.9463  -5.7784   2.3505   2.4473   3.0292   3.5066   3.6562   3.7276
     6.3907   6.4085   6.7859   6.9542   7.0597   7.3073   7.6566   7.9037
     8.0188

     occupation numbers 
     1.0000   1.0000   1.0000   1.0000   1.0000   1.0000   1.0000   1.0000
     1.0000   1.0000   1.0000   1.0000   1.0000   1.0000   1.0000   1.0000
     1.0000   1.0000   1.0000   0.9913   0.8999   0.0981   0.0000   0.0000
     0.0000

          k = 0.3333 0.7313-1.4425 (  1573 PWs)   bands (ev):

   -72.2408 -72.2407 -40.9880 -40.9875 -40.9862 -40.9861 -40.9747 -40.9746
    -5.8150  -5.7488   2.4272   2.4288   3.0798   3.1517   3.6844   3.7165
     6.3675   6.5366   6.6755   6.7084   7.1082   7.1303   7.4607   7.6430
     7.9842

     occupation numbers 
     1.0000   1.0000   1.0000   1.0000   1.0000   1.0000   1.0000   1.0000
     1.0000   1.0000   1.0000   1.0000   1.0000   1.0000   1.0000   1.0000
     1.0000   1.0000   1.0000   1.0000   0.7814   0.7078   0.0019   0.0000
     0.0000

          k = 0.3333 0.7313-0.9526 (  1579 PWs)   bands (ev):

   -72.2408 -72.2407 -40.9880 -40.9875 -40.9863 -40.9862 -40.9749 -40.9745
    -5.7895  -5.7757   2.5170   2.5240   2.9981   3.0236   3.6941   3.7030
     6.4348   6.4697   6.6516   6.6582   7.1272   7.1363   7.4863   7.5312
     8.0835

     occupation numbers 
     1.0000   1.0000   1.0000   1.0000   1.0000   1.0000   1.0000   1.0000
     1.0000   1.0000   1.0000   1.0000   1.0000   1.0000   1.0000   1.0000
     1.0000   1.0000   1.0000   1.0000   0.7189   0.6859   0.0008   0.0001
     0.0000

          k = 0.3333-1.1162 0.1905 (  1581 PWs)   bands (ev):

   -72.2408 -72.2408 -40.9876 -40.9875 -40.9859 -40.9856 -40.9748 -40.9746
    -5.8644  -5.8594   2.2041   2.2261   3.3372   3.6534   3.6918   3.6991
     6.2645   6.6889   6.7558   7.0445   7.0542   7.3807   7.6705   7.7844
     7.8558

     occupation numbers 
     1.0000   1.0000   1.0000   1.0000   1.0000   1.0000   1.0000   1.0000
     1.0000   1.0000   1.0000   1.0000   1.0000   1.0000   1.0000   1.0000
     1.0000   1.0000   1.0000   0.9249   0.9096   0.0199   0.0000   0.0000
     0.0000

          k = 0.3333-1.1162 0.6804 (  1576 PWs)   bands (ev):

   -72.2408 -72.2407 -40.9880 -40.9876 -40.9863 -40.9861 -40.9748 -40.9745
    -5.8408  -5.7199   2.2534   2.2943   3.2805   3.2849   3.7041   3.7244
     6.2784   6.6100   6.7814   6.8107   7.0143   7.0392   7.5057   7.7869
     7.8305

     occupation numbers 
     1.0000   1.0000   1.0000   1.0000   1.0000   1.0000   1.0000   1.0000
     1.0000   1.0000   1.0000   1.0000   1.0000   1.0000   1.0000   1.0000
     1.0000   1.0000   1.0000   0.9999   0.9602   0.9324   0.0004   0.0000
     0.0000

          k = 0.3333-1.1162 1.1703 (  1573 PWs)   bands (ev):

   -72.2408 -72.2407 -40.9878 -40.9875 -40.9864 -40.9861 -40.9749 -40.9744
    -5.8150  -5.7488   2.4272   2.4288   3.0802   3.1509   3.6849   3.7163
     6.3670   6.5358   6.6772   6.7092   7.1072   7.1308   7.4605   7.6419
     7.9846

     occupation numbers 
     1.0000   1.0000   1.0000   1.0000   1.0000   1.0000   1.0000   1.0000
     1.0000   1.0000   1.0000   1.0000   1.0000   1.0000   1.0000   1.0000
     1.0000   1.0000   1.0000   1.0000   0.7843   0.7062   0.0020   0.0000
     0.0000

          k = 0.3333-1.1162-0.7893 (  1577 PWs)   bands (ev):

   -72.2409 -72.2407 -40.9877 -40.9875 -40.9860 -40.9853 -40.9753 -40.9740
    -6.0039  -5.7126   2.1905   2.2116   3.4211   3.6182   3.6475   3.7423
     6.2669   6.6995   6.8463   6.9067   6.9622   7.1990   7.5854   7.5978
     8.3520

     occupation numbers 
     1.0000   1.0000   1.0000   1.0000   1.0000   1.0000   1.0000   1.0000
     1.0000   1.0000   1.0000   1.0000   1.0000   1.0000   1.0000   1.0000
     1.0000   1.0000   0.9998   0.9980   0.9891   0.4338   0.0000   0.0000
     0.0000

          k = 0.3333-1.1162-0.2994 (  1580 PWs)   bands (ev):

   -72.2409 -72.2407 -40.9869 -40.9866 -40.9863 -40.9861 -40.9753 -40.9741
    -6.0331  -5.7883   2.4207   2.4397   3.1762   3.4777   3.6529   3.6906
     6.4366   6.4972   6.7090   6.9078   7.1418   7.4338   7.5127   8.0344
     8.0673

     occupation numbers 
     1.0000   1.0000   1.0000   1.0000   1.0000   1.0000   1.0000   1.0000
     1.0000   1.0000   1.0000   1.0000   1.0000   1.0000   1.0000   1.0000
     1.0000   1.0000   1.0000   0.9979   0.6656   0.0046   0.0003   0.0000
     0.0000

          k = 0.3333-0.6543 0.0272 (  1602 PWs)   bands (ev):

   -72.2410 -72.2410 -40.9865 -40.9861 -40.9852 -40.9850 -40.9750 -40.9749
    -6.1492  -6.0802   2.5048   2.6220   3.4300   3.5584   3.6183   3.6543
     6.4029   6.5665   6.8275   6.9026   7.6776   7.7243   8.0449   8.1267
     8.3828

     occupation numbers 
     1.0000   1.0000   1.0000   1.0000   1.0000   1.0000   1.0000   1.0000
     1.0000   1.0000   1.0000   1.0000   1.0000   1.0000   1.0000   1.0000
     1.0000   1.0000   0.9999   0.9982   0.0000   0.0000   0.0000   0.0000
     0.0000

          k = 0.3333-0.6543 0.5171 (  1589 PWs)   bands (ev):

   -72.2410 -72.2408 -40.9879 -40.9873 -40.9854 -40.9853 -40.9751 -40.9745
    -6.0033  -5.8200   2.3751   2.3956   3.2627   3.4923   3.6449   3.6930
     6.4433   6.4572   6.7790   6.9182   7.1411   7.3550   7.5686   8.0316
     8.0988

     occupation numbers 
     1.0000   1.0000   1.0000   1.0000   1.0000   1.0000   1.0000   1.0000
     1.0000   1.0000   1.0000   1.0000   1.0000   1.0000   1.0000   1.0000
     1.0000   1.0000   1.0000   0.9970   0.6683   0.0369   0.0000   0.0000
     0.0000

          k = 0.3333-0.6543 1.0070 (  1579 PWs)   bands (ev):

   -72.2408 -72.2407 -40.9883 -40.9882 -40.9858 -40.9856 -40.9748 -40.9747
    -5.7895  -5.7756   2.5164   2.5234   2.9989   3.0237   3.6947   3.7033
     6.4339   6.4688   6.6530   6.6589   7.1257   7.1358   7.4862   7.5304
     8.0841

     occupation numbers 
     1.0000   1.0000   1.0000   1.0000   1.0000   1.0000   1.0000   1.0000
     1.0000   1.0000   1.0000   1.0000   1.0000   1.0000   1.0000   1.0000
     1.0000   1.0000   1.0000   1.0000   0.7241   0.6881   0.0008   0.0002
     0.0000

          k = 0.3333-0.6543-0.9526 (  1580 PWs)   bands (ev):

   -72.2409 -72.2407 -40.9878 -40.9873 -40.9854 -40.9853 -40.9752 -40.9742
    -6.0331  -5.7883   2.4207   2.4391   3.1757   3.4785   3.6529   3.6914
     6.4363   6.4985   6.7088   6.9057   7.1413   7.4337   7.5119   8.0344
     8.0686

     occupation numbers 
     1.0000   1.0000   1.0000   1.0000   1.0000   1.0000   1.0000   1.0000
     1.0000   1.0000   1.0000   1.0000   1.0000   1.0000   1.0000   1.0000
     1.0000   1.0000   1.0000   0.9980   0.6676   0.0046   0.0003   0.0000
     0.0000

          k = 0.3333-0.6543-0.4627 (  1599 PWs)   bands (ev):

   -72.2410 -72.2410 -40.9865 -40.9860 -40.9852 -40.9850 -40.9753 -40.9744
    -6.2038  -6.0231   2.4277   2.6837   3.4785   3.5254   3.6336   3.6386
     6.4128   6.5908   6.8301   6.9263   7.4725   7.8526   8.0565   8.2274
     8.2912

     occupation numbers 
     1.0000   1.0000   1.0000   1.0000   1.0000   1.0000   1.0000   1.0000
     1.0000   1.0000   1.0000   1.0000   1.0000   1.0000   1.0000   1.0000
     1.0000   1.0000   0.9999   0.9962   0.0013   0.0000   0.0000   0.0000
     0.0000

     the Fermi energy is     7.1829 ev

!    total energy              =    -705.32185148 Ry
     total all-electron energy =     -6231.038659 Ry
     estimated scf accuracy    <          2.2E-11 Ry
     smearing contrib. (-TS)   =      -0.00475849 Ry
     internal energy E=F+TS    =    -705.31709298 Ry

     The total energy is F=E-TS. E is the sum of the following terms:
     one-electron contribution =    -305.11786843 Ry
     hartree contribution      =     169.04251255 Ry
     xc contribution           =     -65.34728418 Ry
     ewald contribution        =    -256.51068425 Ry
     one-center paw contrib.   =    -247.38376866 Ry
      -> PAW hartree energy AE =     177.15914255 Ry
      -> PAW hartree energy PS =    -178.07003158 Ry
      -> PAW xc energy AE      =    -104.23511351 Ry
      -> PAW xc energy PS      =      27.56983832 Ry
      -> total E_H with PAW    =     168.13162352 Ry
      -> total E_XC with PAW   =    -142.01255937 Ry

     convergence has been achieved in  20 iterations

     Forces acting on atoms (cartesian axes, Ry/au):

     atom    1 type  1   force =    -0.00235618    0.00136034    0.00142855
     atom    2 type  2   force =    -0.00235619    0.00136034    0.00142859
     atom    3 type  3   force =     0.00235617   -0.00136034   -0.00142855
     atom    4 type  3   force =     0.00235619   -0.00136035   -0.00142858
     The non-local contrib.  to forces
     atom    1 type  1   force =     0.00010951   -0.00006323    0.00005961
     atom    2 type  2   force =     0.00011043   -0.00006376    0.00005930
     atom    3 type  3   force =    -0.00054057    0.00031210    0.00037203
     atom    4 type  3   force =    -0.00054157    0.00031268    0.00037244
     The ionic contribution  to forces
     atom    1 type  1   force =    -0.00000135   -0.00000078   -0.00000055
     atom    2 type  2   force =    -0.00000135   -0.00000078   -0.00000055
     atom    3 type  3   force =     0.00000135    0.00000078    0.00000055
     atom    4 type  3   force =     0.00000135    0.00000078    0.00000055
     The local contribution  to forces
     atom    1 type  1   force =    -0.00216715    0.00125224    0.00120306
     atom    2 type  2   force =    -0.00216968    0.00125369    0.00120409
     atom    3 type  3   force =     0.00287430   -0.00166074   -0.00178687
     atom    4 type  3   force =     0.00287066   -0.00165864   -0.00178533
     The core correction contribution to forces
     atom    1 type  1   force =    -0.00030020    0.00017332    0.00016786
     atom    2 type  2   force =    -0.00030020    0.00017332    0.00016786
     atom    3 type  3   force =     0.00002012   -0.00001162   -0.00001366
     atom    4 type  3   force =     0.00002015   -0.00001163   -0.00001367
     The Hubbard contrib.    to forces
     atom    1 type  1   force =     0.00000000    0.00000000    0.00000000
     atom    2 type  2   force =     0.00000000    0.00000000    0.00000000
     atom    3 type  3   force =     0.00000000    0.00000000    0.00000000
     atom    4 type  3   force =     0.00000000    0.00000000    0.00000000
     The SCF correction term to forces
     atom    1 type  1   force =    -0.00000068    0.00000039    0.00000023
     atom    2 type  2   force =     0.00000091   -0.00000053   -0.00000045
     atom    3 type  3   force =    -0.00000237    0.00000137    0.00000106
     atom    4 type  3   force =     0.00000226   -0.00000131   -0.00000092

     Total force =     0.006146     Total SCF correction =     0.000004

     BFGS Geometry Optimization
     Energy error            =      0.0E+00 Ry
     Gradient error          =      2.4E-03 Ry/Bohr

     number of scf cycles    =   1
     number of bfgs steps    =   0

     energy             new  =    -705.3218514765 Ry

     new trust radius        =       0.0030729499 bohr
     new conv_thr            =            1.0E-10 Ry


ATOMIC_POSITIONS (crystal)
Mn1              0.3747480979        0.7501335783        0.7502366476
Mn2              0.8747480959        0.7501335770        0.7502366542
S                0.0002519018       -0.0001335778       -0.0002366480
S                0.5002519044       -0.0001335774       -0.0002366539



     Writing config-only to output data dir ./temp/mns.save/ :
     XML data file
     NEW-OLD atomic charge density approx. for the potential

     Check: negative core charge=   -0.000236

     total cpu time spent up to now is       32.4 secs

     Self-consistent Calculation

     iteration #  1     ecut=    30.00 Ry     beta= 0.70
     Davidson diagonalization with overlap

---- Real-time Memory Report at c_bands before calling an iterative solver
            60 MiB given to the printing process from OS
             0 MiB allocation reported by mallinfo(arena+hblkhd)
          1836 MiB available memory on the node where the printing process lives
------------------
     ethr =  1.00E-06,  avg # of iterations =  3.0

     Threshold (ethr) on eigenvalues was too large:
     Diagonalizing with lowered threshold

     Davidson diagonalization with overlap

---- Real-time Memory Report at c_bands before calling an iterative solver
            60 MiB given to the printing process from OS
             0 MiB allocation reported by mallinfo(arena+hblkhd)
          1837 MiB available memory on the node where the printing process lives
------------------
     ethr =  1.23E-08,  avg # of iterations =  5.7

     total cpu time spent up to now is       36.0 secs

     total energy              =    -705.32188483 Ry
     estimated scf accuracy    <       0.00000602 Ry

     iteration #  2     ecut=    30.00 Ry     beta= 0.70
     Davidson diagonalization with overlap

---- Real-time Memory Report at c_bands before calling an iterative solver
            60 MiB given to the printing process from OS
             0 MiB allocation reported by mallinfo(arena+hblkhd)
          1835 MiB available memory on the node where the printing process lives
------------------
     ethr =  1.43E-08,  avg # of iterations =  2.0

     total cpu time spent up to now is       37.3 secs

     total energy              =    -705.32187806 Ry
     estimated scf accuracy    <       0.00008403 Ry

     iteration #  3     ecut=    30.00 Ry     beta= 0.70
     Davidson diagonalization with overlap

---- Real-time Memory Report at c_bands before calling an iterative solver
            60 MiB given to the printing process from OS
             0 MiB allocation reported by mallinfo(arena+hblkhd)
          1836 MiB available memory on the node where the printing process lives
------------------
     ethr =  1.43E-08,  avg # of iterations =  6.5

     total cpu time spent up to now is       38.8 secs

     total energy              =    -705.32187685 Ry
     estimated scf accuracy    <       0.00057902 Ry

     iteration #  4     ecut=    30.00 Ry     beta= 0.70
     Davidson diagonalization with overlap

---- Real-time Memory Report at c_bands before calling an iterative solver
            60 MiB given to the printing process from OS
             0 MiB allocation reported by mallinfo(arena+hblkhd)
          1837 MiB available memory on the node where the printing process lives
------------------
     ethr =  1.43E-08,  avg # of iterations =  5.9

     total cpu time spent up to now is       40.4 secs

     total energy              =    -705.32188535 Ry
     estimated scf accuracy    <       0.00000151 Ry

     iteration #  5     ecut=    30.00 Ry     beta= 0.70
     Davidson diagonalization with overlap

---- Real-time Memory Report at c_bands before calling an iterative solver
            60 MiB given to the printing process from OS
             0 MiB allocation reported by mallinfo(arena+hblkhd)
          1838 MiB available memory on the node where the printing process lives
------------------
     ethr =  3.61E-09,  avg # of iterations =  3.2

     total cpu time spent up to now is       41.7 secs

     total energy              =    -705.32188557 Ry
     estimated scf accuracy    <       0.00000034 Ry

     iteration #  6     ecut=    30.00 Ry     beta= 0.70
     Davidson diagonalization with overlap

---- Real-time Memory Report at c_bands before calling an iterative solver
            60 MiB given to the printing process from OS
             0 MiB allocation reported by mallinfo(arena+hblkhd)
          1838 MiB available memory on the node where the printing process lives
------------------
     ethr =  7.99E-10,  avg # of iterations =  1.3

     total cpu time spent up to now is       42.8 secs

     total energy              =    -705.32188559 Ry
     estimated scf accuracy    <       0.00000002 Ry

     iteration #  7     ecut=    30.00 Ry     beta= 0.70
     Davidson diagonalization with overlap

---- Real-time Memory Report at c_bands before calling an iterative solver
            60 MiB given to the printing process from OS
             0 MiB allocation reported by mallinfo(arena+hblkhd)
          1838 MiB available memory on the node where the printing process lives
------------------
     ethr =  4.39E-11,  avg # of iterations =  5.5

     total cpu time spent up to now is       44.5 secs

     total energy              =    -705.32188560 Ry
     estimated scf accuracy    <       0.00000003 Ry

     iteration #  8     ecut=    30.00 Ry     beta= 0.70
     Davidson diagonalization with overlap

---- Real-time Memory Report at c_bands before calling an iterative solver
            60 MiB given to the printing process from OS
             0 MiB allocation reported by mallinfo(arena+hblkhd)
          1836 MiB available memory on the node where the printing process lives
------------------
     ethr =  4.39E-11,  avg # of iterations =  1.1

     total cpu time spent up to now is       45.7 secs

     total energy              =    -705.32188560 Ry
     estimated scf accuracy    <          1.3E-09 Ry

     iteration #  9     ecut=    30.00 Ry     beta= 0.70
     Davidson diagonalization with overlap

---- Real-time Memory Report at c_bands before calling an iterative solver
            60 MiB given to the printing process from OS
             0 MiB allocation reported by mallinfo(arena+hblkhd)
          1836 MiB available memory on the node where the printing process lives
------------------
     ethr =  3.11E-12,  avg # of iterations =  4.9

     total cpu time spent up to now is       47.2 secs

     total energy              =    -705.32188560 Ry
     estimated scf accuracy    <          1.9E-10 Ry

     iteration # 10     ecut=    30.00 Ry     beta= 0.70
     Davidson diagonalization with overlap

---- Real-time Memory Report at c_bands before calling an iterative solver
            60 MiB given to the printing process from OS
             0 MiB allocation reported by mallinfo(arena+hblkhd)
          1835 MiB available memory on the node where the printing process lives
------------------
     ethr =  4.49E-13,  avg # of iterations =  3.1

     total cpu time spent up to now is       48.5 secs

     End of self-consistent calculation

          k = 0.0000 0.0000 0.0000 (  1617 PWs)   bands (ev):

   -72.2415 -72.2410 -40.9853 -40.9848 -40.9842 -40.9838 -40.9785 -40.9748
    -6.5670  -5.9170   1.9966   3.5054   3.5110   3.5111   3.6666   3.6669
     6.6764   6.6784   6.8536   6.8547   6.9324   8.2827   8.2832   9.2652
     9.2686

     occupation numbers 
     1.0000   1.0000   1.0000   1.0000   1.0000   1.0000   1.0000   1.0000
     1.0000   1.0000   1.0000   1.0000   1.0000   1.0000   1.0000   1.0000
     1.0000   1.0000   0.9997   0.9997   0.9954   0.0000   0.0000   0.0000
     0.0000

          k = 0.0000 0.0000 0.4899 (  1600 PWs)   bands (ev):

   -72.2412 -72.2410 -40.9861 -40.9859 -40.9846 -40.9837 -40.9780 -40.9747
    -6.3584  -5.8499   2.2603   2.9305   3.3374   3.5766   3.5809   3.6879
     6.5234   6.6854   6.6877   6.8728   6.9739   7.9539   7.9644   8.1626
     9.0027

     occupation numbers 
     1.0000   1.0000   1.0000   1.0000   1.0000   1.0000   1.0000   1.0000
     1.0000   1.0000   1.0000   1.0000   1.0000   1.0000   1.0000   1.0000
     1.0000   1.0000   1.0000   0.9994   0.9852   0.0000   0.0000   0.0000
     0.0000

          k = 0.0000 0.0000 0.9798 (  1578 PWs)   bands (ev):

   -72.2410 -72.2408 -40.9881 -40.9870 -40.9849 -40.9841 -40.9772 -40.9752
    -5.9865  -5.7300   2.0978   2.1291   3.6166   3.6508   3.6528   3.7407
     6.2811   6.7881   6.7901   6.9684   7.0698   7.1329   7.5203   7.5617
     8.4195

     occupation numbers 
     1.0000   1.0000   1.0000   1.0000   1.0000   1.0000   1.0000   1.0000
     1.0000   1.0000   1.0000   1.0000   1.0000   1.0000   1.0000   1.0000
     1.0000   1.0000   1.0000   0.9872   0.8807   0.6994   0.0002   0.0000
     0.0000

          k = 0.0000 0.4619-0.1633 (  1600 PWs)   bands (ev):

   -72.2412 -72.2410 -40.9860 -40.9852 -40.9850 -40.9843 -40.9778 -40.9749
    -6.3584  -5.8499   2.2607   2.9301   3.3370   3.5773   3.5810   3.6879
     6.5239   6.6857   6.6875   6.8736   6.9727   7.9544   7.9638   8.1636
     9.0007

     occupation numbers 
     1.0000   1.0000   1.0000   1.0000   1.0000   1.0000   1.0000   1.0000
     1.0000   1.0000   1.0000   1.0000   1.0000   1.0000   1.0000   1.0000
     1.0000   1.0000   1.0000   0.9994   0.9856   0.0000   0.0000   0.0000
     0.0000

          k = 0.0000 0.4619 0.3266 (  1598 PWs)   bands (ev):

   -72.2412 -72.2410 -40.9857 -40.9854 -40.9848 -40.9844 -40.9775 -40.9753
    -6.2899  -5.9295   2.4169   2.8562   3.2399   3.5730   3.5772   3.7029
     6.4634   6.5980   6.7849   6.8236   7.2055   7.7354   8.4790   8.5204
     8.5277

     occupation numbers 
     1.0000   1.0000   1.0000   1.0000   1.0000   1.0000   1.0000   1.0000
     1.0000   1.0000   1.0000   1.0000   1.0000   1.0000   1.0000   1.0000
     1.0000   1.0000   1.0000   0.9999   0.4084   0.0000   0.0000   0.0000
     0.0000

          k = 0.0000 0.4619 0.8165 (  1588 PWs)   bands (ev):

   -72.2410 -72.2409 -40.9872 -40.9866 -40.9850 -40.9847 -40.9768 -40.9757
    -5.9689  -5.8556   2.3459   2.3644   3.3412   3.4876   3.6478   3.6883
     6.4372   6.4475   6.8616   6.9435   7.1392   7.2913   7.6686   8.0094
     8.1171

     occupation numbers 
     1.0000   1.0000   1.0000   1.0000   1.0000   1.0000   1.0000   1.0000
     1.0000   1.0000   1.0000   1.0000   1.0000   1.0000   1.0000   1.0000
     1.0000   1.0000   0.9996   0.9936   0.6761   0.1305   0.0000   0.0000
     0.0000

          k = 0.0000 0.4619-1.1431 (  1573 PWs)   bands (ev):

   -72.2408 -72.2408 -40.9879 -40.9872 -40.9855 -40.9849 -40.9767 -40.9755
    -5.8344  -5.7274   2.3023   2.3273   3.2233   3.2551   3.7031   3.7125
     6.2938   6.6007   6.7510   6.7724   7.0439   7.0875   7.4683   7.7804
     7.8531

     occupation numbers 
     1.0000   1.0000   1.0000   1.0000   1.0000   1.0000   1.0000   1.0000
     1.0000   1.0000   1.0000   1.0000   1.0000   1.0000   1.0000   1.0000
     1.0000   1.0000   1.0000   1.0000   0.9261   0.8400   0.0015   0.0000
     0.0000

          k = 0.0000 0.4619-0.6532 (  1585 PWs)   bands (ev):

   -72.2411 -72.2408 -40.9869 -40.9868 -40.9851 -40.9847 -40.9774 -40.9752
    -6.0919  -5.7256   2.5682   2.6650   2.8476   3.3758   3.6679   3.6791
     6.3032   6.5656   6.6571   6.8611   7.0628   7.4477   7.5813   7.9309
     7.9788

     occupation numbers 
     1.0000   1.0000   1.0000   1.0000   1.0000   1.0000   1.0000   1.0000
     1.0000   1.0000   1.0000   1.0000   1.0000   1.0000   1.0000   1.0000
     1.0000   1.0000   1.0000   0.9996   0.8946   0.0030   0.0000   0.0000
     0.0000

          k = 0.0000 0.9238-0.3266 (  1578 PWs)   bands (ev):

   -72.2410 -72.2408 -40.9872 -40.9870 -40.9854 -40.9848 -40.9766 -40.9755
    -5.9864  -5.7300   2.0985   2.1288   3.6156   3.6516   3.6532   3.7410
     6.2821   6.7886   6.7903   6.9669   7.0708   7.1332   7.5188   7.5623
     8.4178

     occupation numbers 
     1.0000   1.0000   1.0000   1.0000   1.0000   1.0000   1.0000   1.0000
     1.0000   1.0000   1.0000   1.0000   1.0000   1.0000   1.0000   1.0000
     1.0000   1.0000   1.0000   0.9877   0.8786   0.6982   0.0002   0.0000
     0.0000

          k = 0.0000 0.9238 0.1633 (  1588 PWs)   bands (ev):

   -72.2410 -72.2409 -40.9863 -40.9862 -40.9857 -40.9856 -40.9764 -40.9759
    -5.9689  -5.8556   2.3464   2.3641   3.3415   3.4882   3.6481   3.6875
     6.4367   6.4470   6.8618   6.9440   7.1405   7.2917   7.6685   8.0081
     8.1163

     occupation numbers 
     1.0000   1.0000   1.0000   1.0000   1.0000   1.0000   1.0000   1.0000
     1.0000   1.0000   1.0000   1.0000   1.0000   1.0000   1.0000   1.0000
     1.0000   1.0000   0.9996   0.9935   0.6714   0.1297   0.0000   0.0000
     0.0000

          k = 0.0000 0.9238 0.6532 (  1582 PWs)   bands (ev):

   -72.2410 -72.2409 -40.9871 -40.9871 -40.9854 -40.9848 -40.9764 -40.9759
    -5.9220  -5.7985   2.1076   2.1279   3.5311   3.6788   3.7145   3.7193
     6.2352   6.7590   6.8237   7.0410   7.0441   7.3254   7.5642   7.5724
     8.0915

     occupation numbers 
     1.0000   1.0000   1.0000   1.0000   1.0000   1.0000   1.0000   1.0000
     1.0000   1.0000   1.0000   1.0000   1.0000   1.0000   1.0000   1.0000
     1.0000   1.0000   0.9999   0.9303   0.9258   0.0697   0.0000   0.0000
     0.0000

          k = 0.0000 0.9238-1.3064 (  1588 PWs)   bands (ev):

   -72.2409 -72.2409 -40.9873 -40.9871 -40.9860 -40.9856 -40.9764 -40.9759
    -5.8463  -5.7140   2.2136   2.2608   3.2974   3.3383   3.6942   3.7392
     6.2475   6.6259   6.7914   6.8895   6.9060   7.0011   7.5693   7.6496
     7.8813

     occupation numbers 
     1.0000   1.0000   1.0000   1.0000   1.0000   1.0000   1.0000   1.0000
     1.0000   1.0000   1.0000   1.0000   1.0000   1.0000   1.0000   1.0000
     1.0000   1.0000   1.0000   0.9989   0.9980   0.9708   0.0000   0.0000
     0.0000

          k = 0.0000 0.9238-0.8165 (  1573 PWs)   bands (ev):

   -72.2408 -72.2408 -40.9871 -40.9870 -40.9859 -40.9855 -40.9764 -40.9757
    -5.8344  -5.7275   2.3020   2.3279   3.2238   3.2549   3.7027   3.7128
     6.2937   6.6004   6.7516   6.7728   7.0443   7.0883   7.4677   7.7792
     7.8529

     occupation numbers 
     1.0000   1.0000   1.0000   1.0000   1.0000   1.0000   1.0000   1.0000
     1.0000   1.0000   1.0000   1.0000   1.0000   1.0000   1.0000   1.0000
     1.0000   1.0000   1.0000   1.0000   0.9256   0.8380   0.0016   0.0000
     0.0000

          k = 0.3333-0.1925-0.1361 (  1605 PWs)   bands (ev):

   -72.2412 -72.2412 -40.9852 -40.9846 -40.9841 -40.9836 -40.9775 -40.9756
    -6.4171  -6.0943   2.3380   3.0782   3.5669   3.5670   3.6332   3.6334
     6.6901   6.6919   6.7180   6.7194   7.3913   8.3865   8.5673   8.5683
     9.0802

     occupation numbers 
     1.0000   1.0000   1.0000   1.0000   1.0000   1.0000   1.0000   1.0000
     1.0000   1.0000   1.0000   1.0000   1.0000   1.0000   1.0000   1.0000
     1.0000   1.0000   1.0000   1.0000   0.0152   0.0000   0.0000   0.0000
     0.0000

          k = 0.3333-0.1925 0.3538 (  1594 PWs)   bands (ev):

   -72.2412 -72.2409 -40.9864 -40.9855 -40.9842 -40.9841 -40.9775 -40.9752
    -6.3270  -5.8872   2.3739   2.9291   3.2180   3.5599   3.5674   3.7127
     6.5028   6.6549   6.7170   6.8012   7.1682   7.7205   8.3899   8.4838
     8.6227

     occupation numbers 
     1.0000   1.0000   1.0000   1.0000   1.0000   1.0000   1.0000   1.0000
     1.0000   1.0000   1.0000   1.0000   1.0000   1.0000   1.0000   1.0000
     1.0000   1.0000   1.0000   1.0000   0.5617   0.0000   0.0000   0.0000
     0.0000

          k = 0.3333-0.1925 0.8437 (  1583 PWs)   bands (ev):

   -72.2410 -72.2408 -40.9875 -40.9875 -40.9847 -40.9844 -40.9771 -40.9756
    -5.9865  -5.7354   2.3503   2.4260   3.0642   3.4959   3.6453   3.7388
     6.3057   6.5210   6.8297   6.9228   6.9907   7.2702   7.6112   7.8221
     8.1038

     occupation numbers 
     1.0000   1.0000   1.0000   1.0000   1.0000   1.0000   1.0000   1.0000
     1.0000   1.0000   1.0000   1.0000   1.0000   1.0000   1.0000   1.0000
     1.0000   1.0000   0.9999   0.9966   0.9773   0.1828   0.0000   0.0000
     0.0000

          k = 0.3333-0.1925-1.1159 (  1581 PWs)   bands (ev):

   -72.2409 -72.2409 -40.9880 -40.9870 -40.9848 -40.9843 -40.9765 -40.9760
    -5.8646  -5.8594   2.2036   2.2271   3.3344   3.6501   3.6945   3.6996
     6.2647   6.6874   6.7563   7.0431   7.0545   7.3841   7.6714   7.7831
     7.8556

     occupation numbers 
     1.0000   1.0000   1.0000   1.0000   1.0000   1.0000   1.0000   1.0000
     1.0000   1.0000   1.0000   1.0000   1.0000   1.0000   1.0000   1.0000
     1.0000   1.0000   1.0000   0.9273   0.9094   0.0184   0.0000   0.0000
     0.0000

          k = 0.3333-0.1925-0.6260 (  1602 PWs)   bands (ev):

   -72.2411 -72.2411 -40.9864 -40.9856 -40.9844 -40.9838 -40.9769 -40.9760
    -6.1491  -6.0801   2.5024   2.6213   3.4299   3.5597   3.6228   3.6570
     6.4026   6.5656   6.8268   6.9006   7.6743   7.7209   8.0443   8.1244
     8.3821

     occupation numbers 
     1.0000   1.0000   1.0000   1.0000   1.0000   1.0000   1.0000   1.0000
     1.0000   1.0000   1.0000   1.0000   1.0000   1.0000   1.0000   1.0000
     1.0000   1.0000   0.9999   0.9983   0.0000   0.0000   0.0000   0.0000
     0.0000

          k = 0.3333 0.2694-0.2994 (  1594 PWs)   bands (ev):

   -72.2412 -72.2409 -40.9857 -40.9853 -40.9848 -40.9844 -40.9777 -40.9751
    -6.3270  -5.8872   2.3736   2.9299   3.2186   3.5590   3.5675   3.7127
     6.5016   6.6555   6.7174   6.8027   7.1664   7.7211   8.3893   8.4852
     8.6206

     occupation numbers 
     1.0000   1.0000   1.0000   1.0000   1.0000   1.0000   1.0000   1.0000
     1.0000   1.0000   1.0000   1.0000   1.0000   1.0000   1.0000   1.0000
     1.0000   1.0000   1.0000   1.0000   0.5694   0.0000   0.0000   0.0000
     0.0000

          k = 0.3333 0.2694 0.1905 (  1598 PWs)   bands (ev):

   -72.2412 -72.2410 -40.9859 -40.9852 -40.9849 -40.9842 -40.9780 -40.9748
    -6.3740  -5.8314   2.2603   2.9750   3.2932   3.5696   3.5710   3.7018
     6.5311   6.6493   6.7174   6.8490   6.9570   7.8894   8.0319   8.2332
     8.9506

     occupation numbers 
     1.0000   1.0000   1.0000   1.0000   1.0000   1.0000   1.0000   1.0000
     1.0000   1.0000   1.0000   1.0000   1.0000   1.0000   1.0000   1.0000
     1.0000   1.0000   1.0000   0.9997   0.9906   0.0000   0.0000   0.0000
     0.0000

          k = 0.3333 0.2694 0.6804 (  1583 PWs)   bands (ev):

   -72.2411 -72.2408 -40.9869 -40.9867 -40.9851 -40.9847 -40.9773 -40.9752
    -6.0882  -5.7297   2.5557   2.6245   2.8977   3.3833   3.6655   3.6817
     6.3332   6.5466   6.6691   6.8413   7.0832   7.4697   7.5611   7.9302
     8.0043

     occupation numbers 
     1.0000   1.0000   1.0000   1.0000   1.0000   1.0000   1.0000   1.0000
     1.0000   1.0000   1.0000   1.0000   1.0000   1.0000   1.0000   1.0000
     1.0000   1.0000   1.0000   0.9998   0.8507   0.0015   0.0000   0.0000
     0.0000

          k = 0.3333 0.2694-1.2792 (  1576 PWs)   bands (ev):

   -72.2409 -72.2408 -40.9880 -40.9871 -40.9855 -40.9849 -40.9767 -40.9755
    -5.8410  -5.7200   2.2541   2.2932   3.2820   3.2841   3.7008   3.7224
     6.2790   6.6125   6.7817   6.8128   7.0127   7.0389   7.5061   7.7882
     7.8335

     occupation numbers 
     1.0000   1.0000   1.0000   1.0000   1.0000   1.0000   1.0000   1.0000
     1.0000   1.0000   1.0000   1.0000   1.0000   1.0000   1.0000   1.0000
     1.0000   1.0000   1.0000   0.9999   0.9618   0.9331   0.0004   0.0000
     0.0000

          k = 0.3333 0.2694-0.7893 (  1589 PWs)   bands (ev):

   -72.2411 -72.2409 -40.9872 -40.9865 -40.9850 -40.9848 -40.9770 -40.9756
    -6.0034  -5.8200   2.3741   2.3967   3.2644   3.4929   3.6410   3.6931
     6.4433   6.4570   6.7777   6.9194   7.1399   7.3551   7.5687   8.0351
     8.0989

     occupation numbers 
     1.0000   1.0000   1.0000   1.0000   1.0000   1.0000   1.0000   1.0000
     1.0000   1.0000   1.0000   1.0000   1.0000   1.0000   1.0000   1.0000
     1.0000   1.0000   1.0000   0.9969   0.6734   0.0370   0.0000   0.0000
     0.0000

          k = 0.3333 0.7313-0.4627 (  1583 PWs)   bands (ev):

   -72.2410 -72.2408 -40.9871 -40.9868 -40.9854 -40.9850 -40.9769 -40.9756
    -5.9864  -5.7354   2.3505   2.4267   3.0637   3.4960   3.6455   3.7391
     6.3063   6.5202   6.8304   6.9244   6.9892   7.2705   7.6115   7.8209
     8.1013

     occupation numbers 
     1.0000   1.0000   1.0000   1.0000   1.0000   1.0000   1.0000   1.0000
     1.0000   1.0000   1.0000   1.0000   1.0000   1.0000   1.0000   1.0000
     1.0000   1.0000   0.9999   0.9964   0.9781   0.1820   0.0000   0.0000
     0.0000

          k = 0.3333 0.7313 0.0272 (  1583 PWs)   bands (ev):

   -72.2411 -72.2408 -40.9863 -40.9861 -40.9858 -40.9853 -40.9770 -40.9754
    -6.0882  -5.7297   2.5558   2.6252   2.8976   3.3829   3.6664   3.6812
     6.3340   6.5456   6.6672   6.8427   7.0843   7.4707   7.5608   7.9293
     8.0029

     occupation numbers 
     1.0000   1.0000   1.0000   1.0000   1.0000   1.0000   1.0000   1.0000
     1.0000   1.0000   1.0000   1.0000   1.0000   1.0000   1.0000   1.0000
     1.0000   1.0000   1.0000   0.9998   0.8481   0.0014   0.0000   0.0000
     0.0000

          k = 0.3333 0.7313 0.5171 (  1587 PWs)   bands (ev):

   -72.2410 -72.2409 -40.9870 -40.9869 -40.9852 -40.9852 -40.9768 -40.9758
    -5.9465  -5.7784   2.3514   2.4489   3.0264   3.5018   3.6580   3.7294
     6.3906   6.4071   6.7869   6.9552   7.0593   7.3109   7.6552   7.9039
     8.0190

     occupation numbers 
     1.0000   1.0000   1.0000   1.0000   1.0000   1.0000   1.0000   1.0000
     1.0000   1.0000   1.0000   1.0000   1.0000   1.0000   1.0000   1.0000
     1.0000   1.0000   1.0000   0.9911   0.9010   0.0922   0.0000   0.0000
     0.0000

          k = 0.3333 0.7313-1.4425 (  1573 PWs)   bands (ev):

   -72.2409 -72.2408 -40.9874 -40.9869 -40.9857 -40.9855 -40.9762 -40.9761
    -5.8151  -5.7489   2.4274   2.4295   3.0786   3.1510   3.6827   3.7148
     6.3690   6.5381   6.6770   6.7084   7.1079   7.1318   7.4613   7.6433
     7.9844

     occupation numbers 
     1.0000   1.0000   1.0000   1.0000   1.0000   1.0000   1.0000   1.0000
     1.0000   1.0000   1.0000   1.0000   1.0000   1.0000   1.0000   1.0000
     1.0000   1.0000   1.0000   1.0000   0.7831   0.7032   0.0019   0.0000
     0.0000

          k = 0.3333 0.7313-0.9526 (  1579 PWs)   bands (ev):

   -72.2409 -72.2409 -40.9873 -40.9869 -40.9857 -40.9857 -40.9764 -40.9760
    -5.7896  -5.7758   2.5179   2.5249   2.9965   3.0220   3.6925   3.7018
     6.4365   6.4708   6.6526   6.6589   7.1280   7.1377   7.4865   7.5310
     8.0834

     occupation numbers 
     1.0000   1.0000   1.0000   1.0000   1.0000   1.0000   1.0000   1.0000
     1.0000   1.0000   1.0000   1.0000   1.0000   1.0000   1.0000   1.0000
     1.0000   1.0000   1.0000   1.0000   0.7168   0.6819   0.0008   0.0001
     0.0000

          k = 0.3333-1.1162 0.1905 (  1581 PWs)   bands (ev):

   -72.2409 -72.2409 -40.9870 -40.9870 -40.9853 -40.9850 -40.9763 -40.9760
    -5.8645  -5.8594   2.2043   2.2268   3.3352   3.6493   3.6947   3.6998
     6.2645   6.6875   6.7574   7.0448   7.0538   7.3841   7.6692   7.7833
     7.8546

     occupation numbers 
     1.0000   1.0000   1.0000   1.0000   1.0000   1.0000   1.0000   1.0000
     1.0000   1.0000   1.0000   1.0000   1.0000   1.0000   1.0000   1.0000
     1.0000   1.0000   1.0000   0.9248   0.9107   0.0184   0.0000   0.0000
     0.0000

          k = 0.3333-1.1162 0.6804 (  1576 PWs)   bands (ev):

   -72.2409 -72.2408 -40.9873 -40.9870 -40.9858 -40.9855 -40.9762 -40.9760
    -5.8410  -5.7200   2.2538   2.2939   3.2821   3.2842   3.7017   3.7214
     6.2794   6.6124   6.7812   6.8121   7.0140   7.0396   7.5061   7.7874
     7.8324

     occupation numbers 
     1.0000   1.0000   1.0000   1.0000   1.0000   1.0000   1.0000   1.0000
     1.0000   1.0000   1.0000   1.0000   1.0000   1.0000   1.0000   1.0000
     1.0000   1.0000   1.0000   0.9999   0.9607   0.9322   0.0004   0.0000
     0.0000

          k = 0.3333-1.1162 1.1703 (  1573 PWs)   bands (ev):

   -72.2409 -72.2408 -40.9871 -40.9870 -40.9858 -40.9856 -40.9763 -40.9759
    -5.8151  -5.7489   2.4274   2.4294   3.0791   3.1506   3.6836   3.7141
     6.3681   6.5380   6.6783   6.7091   7.1068   7.1325   7.4611   7.6425
     7.9847

     occupation numbers 
     1.0000   1.0000   1.0000   1.0000   1.0000   1.0000   1.0000   1.0000
     1.0000   1.0000   1.0000   1.0000   1.0000   1.0000   1.0000   1.0000
     1.0000   1.0000   1.0000   1.0000   0.7865   0.7009   0.0019   0.0000
     0.0000

          k = 0.3333-1.1162-0.7893 (  1577 PWs)   bands (ev):

   -72.2410 -72.2408 -40.9872 -40.9869 -40.9855 -40.9847 -40.9768 -40.9754
    -6.0041  -5.7126   2.1908   2.2124   3.4188   3.6145   3.6477   3.7458
     6.2662   6.6985   6.8481   6.9047   6.9621   7.2012   7.5865   7.5958
     8.3552

     occupation numbers 
     1.0000   1.0000   1.0000   1.0000   1.0000   1.0000   1.0000   1.0000
     1.0000   1.0000   1.0000   1.0000   1.0000   1.0000   1.0000   1.0000
     1.0000   1.0000   0.9998   0.9981   0.9892   0.4258   0.0000   0.0000
     0.0000

          k = 0.3333-1.1162-0.2994 (  1580 PWs)   bands (ev):

   -72.2410 -72.2408 -40.9863 -40.9861 -40.9858 -40.9854 -40.9767 -40.9756
    -6.0332  -5.7882   2.4202   2.4402   3.1775   3.4783   3.6501   3.6914
     6.4357   6.4976   6.7069   6.9081   7.1414   7.4348   7.5121   8.0362
     8.0674

     occupation numbers 
     1.0000   1.0000   1.0000   1.0000   1.0000   1.0000   1.0000   1.0000
     1.0000   1.0000   1.0000   1.0000   1.0000   1.0000   1.0000   1.0000
     1.0000   1.0000   1.0000   0.9979   0.6680   0.0045   0.0003   0.0000
     0.0000

          k = 0.3333-0.6543 0.0272 (  1602 PWs)   bands (ev):

   -72.2411 -72.2411 -40.9858 -40.9854 -40.9847 -40.9845 -40.9764 -40.9763
    -6.1491  -6.0801   2.5032   2.6206   3.4311   3.5587   3.6228   3.6571
     6.4019   6.5665   6.8259   6.9019   7.6746   7.7208   8.0441   8.1229
     8.3831

     occupation numbers 
     1.0000   1.0000   1.0000   1.0000   1.0000   1.0000   1.0000   1.0000
     1.0000   1.0000   1.0000   1.0000   1.0000   1.0000   1.0000   1.0000
     1.0000   1.0000   0.9999   0.9983   0.0000   0.0000   0.0000   0.0000
     0.0000

          k = 0.3333-0.6543 0.5171 (  1589 PWs)   bands (ev):

   -72.2411 -72.2409 -40.9872 -40.9866 -40.9849 -40.9849 -40.9765 -40.9760
    -6.0034  -5.8200   2.3749   2.3960   3.2636   3.4930   3.6421   3.6927
     6.4434   6.4577   6.7775   6.9183   7.1410   7.3559   7.5683   8.0336
     8.0995

     occupation numbers 
     1.0000   1.0000   1.0000   1.0000   1.0000   1.0000   1.0000   1.0000
     1.0000   1.0000   1.0000   1.0000   1.0000   1.0000   1.0000   1.0000
     1.0000   1.0000   1.0000   0.9970   0.6693   0.0363   0.0000   0.0000
     0.0000

          k = 0.3333-0.6543 1.0070 (  1579 PWs)   bands (ev):

   -72.2409 -72.2409 -40.9876 -40.9875 -40.9853 -40.9852 -40.9762 -40.9762
    -5.7897  -5.7758   2.5174   2.5247   2.9968   3.0219   3.6930   3.7012
[...]
     1.0000   1.0000   1.0000   0.9273   0.9093   0.0126   0.0000   0.0000
     0.0000

          k = 0.3333-0.1925-0.6260 (  1602 PWs)   bands (ev):

   -72.2416 -72.2416 -40.9850 -40.9837 -40.9826 -40.9821 -40.9820 -40.9807
    -6.1491  -6.0796   2.4954   2.6178   3.4321   3.5656   3.6380   3.6640
     6.3985   6.5659   6.8222   6.8967   7.6593   7.7113   8.0421   8.1100
     8.3836

     occupation numbers 
     1.0000   1.0000   1.0000   1.0000   1.0000   1.0000   1.0000   1.0000
     1.0000   1.0000   1.0000   1.0000   1.0000   1.0000   1.0000   1.0000
     1.0000   1.0000   0.9999   0.9986   0.0000   0.0000   0.0000   0.0000
     0.0000

          k = 0.3333 0.2694-0.2994 (  1594 PWs)   bands (ev):

   -72.2417 -72.2414 -40.9851 -40.9835 -40.9832 -40.9826 -40.9813 -40.9801
    -6.3273  -5.8861   2.3635   2.9324   3.2356   3.5412   3.5796   3.7296
     6.5016   6.6528   6.6990   6.8032   7.1544   7.7115   8.3767   8.4879
     8.6136

     occupation numbers 
     1.0000   1.0000   1.0000   1.0000   1.0000   1.0000   1.0000   1.0000
     1.0000   1.0000   1.0000   1.0000   1.0000   1.0000   1.0000   1.0000
     1.0000   1.0000   1.0000   1.0000   0.6213   0.0000   0.0000   0.0000
     0.0000

          k = 0.3333 0.2694 0.1905 (  1598 PWs)   bands (ev):

   -72.2417 -72.2415 -40.9857 -40.9831 -40.9830 -40.9827 -40.9814 -40.9800
    -6.3745  -5.8301   2.2520   2.9812   3.3076   3.5487   3.5799   3.7221
     6.5141   6.6488   6.7195   6.8464   6.9440   7.8814   8.0123   8.2346
     8.9499

     occupation numbers 
     1.0000   1.0000   1.0000   1.0000   1.0000   1.0000   1.0000   1.0000
     1.0000   1.0000   1.0000   1.0000   1.0000   1.0000   1.0000   1.0000
     1.0000   1.0000   1.0000   0.9998   0.9937   0.0000   0.0000   0.0000
     0.0000

          k = 0.3333 0.2694 0.6804 (  1583 PWs)   bands (ev):

   -72.2416 -72.2412 -40.9850 -40.9847 -40.9834 -40.9831 -40.9822 -40.9805
    -6.0892  -5.7294   2.5626   2.6188   2.9045   3.3738   3.6533   3.6897
     6.3235   6.5469   6.6652   6.8473   7.0809   7.4688   7.5782   7.9335
     7.9996

     occupation numbers 
     1.0000   1.0000   1.0000   1.0000   1.0000   1.0000   1.0000   1.0000
     1.0000   1.0000   1.0000   1.0000   1.0000   1.0000   1.0000   1.0000
     1.0000   1.0000   1.0000   0.9998   0.8584   0.0015   0.0000   0.0000
     0.0000

          k = 0.3333 0.2694-1.2792 (  1576 PWs)   bands (ev):

   -72.2414 -72.2413 -40.9860 -40.9843 -40.9838 -40.9831 -40.9827 -40.9808
    -5.8422  -5.7204   2.2575   2.2919   3.2777   3.2864   3.6866   3.7137
     6.2820   6.6266   6.7809   6.8176   7.0106   7.0433   7.5080   7.7890
     7.8435

     occupation numbers 
     1.0000   1.0000   1.0000   1.0000   1.0000   1.0000   1.0000   1.0000
     1.0000   1.0000   1.0000   1.0000   1.0000   1.0000   1.0000   1.0000
     1.0000   1.0000   1.0000   0.9999   0.9643   0.9283   0.0004   0.0000
     0.0000

          k = 0.3333 0.2694-0.7893 (  1589 PWs)   bands (ev):

   -72.2416 -72.2414 -40.9854 -40.9842 -40.9837 -40.9830 -40.9822 -40.9806
    -6.0042  -5.8199   2.3723   2.3996   3.2693   3.4944   3.6258   3.6950
     6.4420   6.4604   6.7682   6.9200   7.1390   7.3611   7.5658   8.0462
     8.1011

     occupation numbers 
     1.0000   1.0000   1.0000   1.0000   1.0000   1.0000   1.0000   1.0000
     1.0000   1.0000   1.0000   1.0000   1.0000   1.0000   1.0000   1.0000
     1.0000   1.0000   1.0000   0.9970   0.6807   0.0329   0.0000   0.0000
     0.0000

          k = 0.3333 0.7313-0.4627 (  1583 PWs)   bands (ev):

   -72.2415 -72.2413 -40.9855 -40.9848 -40.9839 -40.9834 -40.9814 -40.9807
    -5.9872  -5.7354   2.3547   2.4318   3.0526   3.4769   3.6497   3.7496
     6.3011   6.5184   6.8321   6.9301   6.9853   7.2832   7.6087   7.8172
     8.1070

     occupation numbers 
     1.0000   1.0000   1.0000   1.0000   1.0000   1.0000   1.0000   1.0000
     1.0000   1.0000   1.0000   1.0000   1.0000   1.0000   1.0000   1.0000
     1.0000   1.0000   0.9999   0.9959   0.9806   0.1515   0.0000   0.0000
     0.0000

          k = 0.3333 0.7313 0.0272 (  1583 PWs)   bands (ev):

   -72.2416 -72.2412 -40.9854 -40.9843 -40.9840 -40.9831 -40.9812 -40.9808
    -6.0889  -5.7294   2.5603   2.6203   2.9035   3.3763   3.6582   3.6899
     6.3236   6.5456   6.6632   6.8466   7.0826   7.4691   7.5724   7.9315
     7.9980

     occupation numbers 
     1.0000   1.0000   1.0000   1.0000   1.0000   1.0000   1.0000   1.0000
     1.0000   1.0000   1.0000   1.0000   1.0000   1.0000   1.0000   1.0000
     1.0000   1.0000   1.0000   0.9998   0.8543   0.0015   0.0000   0.0000
     0.0000

          k = 0.3333 0.7313 0.5171 (  1587 PWs)   bands (ev):

   -72.2415 -72.2413 -40.9851 -40.9851 -40.9841 -40.9834 -40.9813 -40.9808
    -5.9471  -5.7785   2.3548   2.4550   3.0151   3.4825   3.6651   3.7366
     6.3904   6.4014   6.7909   6.9592   7.0576   7.3253   7.6494   7.9045
     8.0197

     occupation numbers 
     1.0000   1.0000   1.0000   1.0000   1.0000   1.0000   1.0000   1.0000
     1.0000   1.0000   1.0000   1.0000   1.0000   1.0000   1.0000   1.0000
     1.0000   1.0000   1.0000   0.9903   0.9058   0.0712   0.0000   0.0000
     0.0000

          k = 0.3333 0.7313-1.4425 (  1573 PWs)   bands (ev):

   -72.2414 -72.2413 -40.9857 -40.9849 -40.9839 -40.9835 -40.9817 -40.9810
    -5.8158  -5.7496   2.4283   2.4320   3.0738   3.1479   3.6760   3.7082
     6.3753   6.5437   6.6832   6.7086   7.1066   7.1380   7.4639   7.6439
     7.9851

     occupation numbers 
     1.0000   1.0000   1.0000   1.0000   1.0000   1.0000   1.0000   1.0000
     1.0000   1.0000   1.0000   1.0000   1.0000   1.0000   1.0000   1.0000
     1.0000   1.0000   1.0000   1.0000   0.7899   0.6844   0.0018   0.0000
     0.0000

          k = 0.3333 0.7313-0.9526 (  1579 PWs)   bands (ev):

   -72.2414 -72.2413 -40.9855 -40.9850 -40.9841 -40.9836 -40.9818 -40.9810
    -5.7903  -5.7766   2.5214   2.5285   2.9900   3.0151   3.6861   3.6969
     6.4433   6.4748   6.6571   6.6616   7.1314   7.1430   7.4871   7.5300
     8.0846

     occupation numbers 
     1.0000   1.0000   1.0000   1.0000   1.0000   1.0000   1.0000   1.0000
     1.0000   1.0000   1.0000   1.0000   1.0000   1.0000   1.0000   1.0000
     1.0000   1.0000   1.0000   1.0000   0.7083   0.6655   0.0008   0.0002
     0.0000

          k = 0.3333-1.1162 0.1905 (  1581 PWs)   bands (ev):

   -72.2414 -72.2414 -40.9855 -40.9850 -40.9838 -40.9834 -40.9810 -40.9809
    -5.8650  -5.8599   2.2051   2.2296   3.3273   3.6324   3.7026   3.7065
     6.2649   6.6813   6.7639   7.0456   7.0521   7.3977   7.6638   7.7791
     7.8499

     occupation numbers 
     1.0000   1.0000   1.0000   1.0000   1.0000   1.0000   1.0000   1.0000
     1.0000   1.0000   1.0000   1.0000   1.0000   1.0000   1.0000   1.0000
     1.0000   1.0000   1.0000   0.9251   0.9150   0.0132   0.0000   0.0000
     0.0000

          k = 0.3333-1.1162 0.6804 (  1576 PWs)   bands (ev):

   -72.2414 -72.2413 -40.9858 -40.9850 -40.9839 -40.9835 -40.9815 -40.9811
    -5.8418  -5.7206   2.2552   2.2922   3.2815   3.2884   3.6923   3.7091
     6.2837   6.6220   6.7800   6.8181   7.0131   7.0415   7.5077   7.7896
     7.8398

     occupation numbers 
     1.0000   1.0000   1.0000   1.0000   1.0000   1.0000   1.0000   1.0000
     1.0000   1.0000   1.0000   1.0000   1.0000   1.0000   1.0000   1.0000
     1.0000   1.0000   1.0000   0.9999   0.9623   0.9309   0.0004   0.0000
     0.0000

          k = 0.3333-1.1162 1.1703 (  1573 PWs)   bands (ev):

   -72.2414 -72.2413 -40.9853 -40.9850 -40.9842 -40.9837 -40.9816 -40.9808
    -5.8160  -5.7495   2.4276   2.4316   3.0748   3.1489   3.6785   3.7048
     6.3726   6.5466   6.6826   6.7090   7.1049   7.1393   7.4635   7.6449
     7.9852

     occupation numbers 
     1.0000   1.0000   1.0000   1.0000   1.0000   1.0000   1.0000   1.0000
     1.0000   1.0000   1.0000   1.0000   1.0000   1.0000   1.0000   1.0000
     1.0000   1.0000   1.0000   1.0000   0.7948   0.6793   0.0018   0.0000
     0.0000

          k = 0.3333-1.1162-0.7893 (  1577 PWs)   bands (ev):

   -72.2415 -72.2413 -40.9859 -40.9848 -40.9837 -40.9832 -40.9813 -40.9805
    -6.0050  -5.7126   2.1918   2.2155   3.4091   3.5993   3.6486   3.7601
     6.2638   6.6941   6.8554   6.8968   6.9614   7.2097   7.5871   7.5911
     8.3679

     occupation numbers 
     1.0000   1.0000   1.0000   1.0000   1.0000   1.0000   1.0000   1.0000
     1.0000   1.0000   1.0000   1.0000   1.0000   1.0000   1.0000   1.0000
     1.0000   1.0000   0.9997   0.9986   0.9897   0.3953   0.0000   0.0000
     0.0000

          k = 0.3333-1.1162-0.2994 (  1580 PWs)   bands (ev):

   -72.2415 -72.2413 -40.9853 -40.9845 -40.9839 -40.9832 -40.9810 -40.9808
    -6.0338  -5.7881   2.4178   2.4419   3.1828   3.4799   3.6394   3.6950
     6.4320   6.4996   6.6988   6.9087   7.1398   7.4381   7.5093   8.0437
     8.0678

     occupation numbers 
     1.0000   1.0000   1.0000   1.0000   1.0000   1.0000   1.0000   1.0000
     1.0000   1.0000   1.0000   1.0000   1.0000   1.0000   1.0000   1.0000
     1.0000   1.0000   1.0000   0.9979   0.6775   0.0041   0.0004   0.0000
     0.0000

          k = 0.3333-0.6543 0.0272 (  1602 PWs)   bands (ev):

   -72.2416 -72.2416 -40.9850 -40.9838 -40.9832 -40.9828 -40.9807 -40.9807
    -6.1488  -6.0797   2.4968   2.6145   3.4362   3.5598   3.6411   3.6680
     6.3977   6.5666   6.8195   6.8988   7.6622   7.7061   8.0406   8.1076
     8.3846

     occupation numbers 
     1.0000   1.0000   1.0000   1.0000   1.0000   1.0000   1.0000   1.0000
     1.0000   1.0000   1.0000   1.0000   1.0000   1.0000   1.0000   1.0000
     1.0000   1.0000   0.9999   0.9985   0.0000   0.0000   0.0000   0.0000
     0.0000

          k = 0.3333-0.6543 0.5171 (  1589 PWs)   bands (ev):

   -72.2416 -72.2414 -40.9858 -40.9840 -40.9835 -40.9830 -40.9815 -40.9813
    -6.0040  -5.8202   2.3740   2.3975   3.2668   3.4955   3.6311   3.6915
     6.4437   6.4598   6.7715   6.9187   7.1411   7.3592   7.5665   8.0417
     8.1023

     occupation numbers 
     1.0000   1.0000   1.0000   1.0000   1.0000   1.0000   1.0000   1.0000
     1.0000   1.0000   1.0000   1.0000   1.0000   1.0000   1.0000   1.0000
     1.0000   1.0000   1.0000   0.9971   0.6726   0.0344   0.0000   0.0000
     0.0000

          k = 0.3333-0.6543 1.0070 (  1579 PWs)   bands (ev):

   -72.2414 -72.2413 -40.9853 -40.9850 -40.9836 -40.9835 -40.9818 -40.9816
    -5.7905  -5.7766   2.5213   2.5297   2.9880   3.0145   3.6859   3.6929
     6.4430   6.4784   6.6589   6.6642   7.1303   7.1438   7.4869   7.5305
     8.0863

     occupation numbers 
     1.0000   1.0000   1.0000   1.0000   1.0000   1.0000   1.0000   1.0000
     1.0000   1.0000   1.0000   1.0000   1.0000   1.0000   1.0000   1.0000
     1.0000   1.0000   1.0000   1.0000   0.7123   0.6626   0.0008   0.0002
     0.0000

          k = 0.3333-0.6543-0.9526 (  1580 PWs)   bands (ev):

   -72.2415 -72.2413 -40.9857 -40.9839 -40.9834 -40.9831 -40.9814 -40.9811
    -6.0339  -5.7883   2.4189   2.4423   3.1797   3.4779   3.6388   3.6935
     6.4336   6.5006   6.7020   6.9084   7.1406   7.4419   7.5088   8.0444
     8.0698

     occupation numbers 
     1.0000   1.0000   1.0000   1.0000   1.0000   1.0000   1.0000   1.0000
     1.0000   1.0000   1.0000   1.0000   1.0000   1.0000   1.0000   1.0000
     1.0000   1.0000   1.0000   0.9979   0.6745   0.0037   0.0004   0.0000
     0.0000

          k = 0.3333-0.6543-0.4627 (  1599 PWs)   bands (ev):

   -72.2416 -72.2416 -40.9852 -40.9835 -40.9831 -40.9829 -40.9808 -40.9806
    -6.2037  -6.0223   2.4192   2.6784   3.4795   3.5304   3.6511   3.6575
     6.4064   6.5916   6.8232   6.9222   7.4533   7.8414   8.0355   8.2211
     8.2917

     occupation numbers 
     1.0000   1.0000   1.0000   1.0000   1.0000   1.0000   1.0000   1.0000
     1.0000   1.0000   1.0000   1.0000   1.0000   1.0000   1.0000   1.0000
     1.0000   1.0000   0.9999   0.9968   0.0026   0.0000   0.0000   0.0000
     0.0000

     the Fermi energy is     7.1841 ev

!    total energy              =    -705.32194739 Ry
     total all-electron energy =     -6231.038755 Ry
     estimated scf accuracy    <          1.7E-12 Ry
     smearing contrib. (-TS)   =      -0.00466793 Ry
     internal energy E=F+TS    =    -705.31727946 Ry

     The total energy is F=E-TS. E is the sum of the following terms:
     one-electron contribution =    -305.12160704 Ry
     hartree contribution      =     169.04357242 Ry
     xc contribution           =     -65.34738554 Ry
     ewald contribution        =    -256.50809566 Ry
     one-center paw contrib.   =    -247.38376364 Ry
      -> PAW hartree energy AE =     177.15965253 Ry
      -> PAW hartree energy PS =    -178.07051655 Ry
      -> PAW xc energy AE      =    -104.23524113 Ry
      -> PAW xc energy PS      =      27.56994573 Ry
      -> total E_H with PAW    =     168.13270840 Ry
      -> total E_XC with PAW   =    -142.01268094 Ry

     convergence has been achieved in  11 iterations

     Forces acting on atoms (cartesian axes, Ry/au):

     atom    1 type  1   force =     0.00002856   -0.00001649    0.00002979
     atom    2 type  2   force =     0.00002875   -0.00001660    0.00002973
     atom    3 type  3   force =    -0.00002864    0.00001654   -0.00002976
     atom    4 type  3   force =    -0.00002867    0.00001655   -0.00002976
     The non-local contrib.  to forces
     atom    1 type  1   force =    -0.00007255    0.00004189    0.00023074
     atom    2 type  2   force =    -0.00007151    0.00004129    0.00023035
     atom    3 type  3   force =    -0.00364858    0.00210651    0.00225256
     atom    4 type  3   force =    -0.00364861    0.00210652    0.00225254
     The ionic contribution  to forces
     atom    1 type  1   force =     0.06463306   -0.03731746   -0.03919396
     atom    2 type  2   force =     0.06455372   -0.03727166   -0.03916283
     atom    3 type  3   force =    -0.06461151    0.03730502    0.03918671
     atom    4 type  3   force =    -0.06457527    0.03728410    0.03917008
     The local contribution  to forces
     atom    1 type  1   force =    -0.06453827    0.03726233    0.03901130
     atom    2 type  2   force =    -0.06446036    0.03721735    0.03898073
     atom    3 type  3   force =     0.06805863   -0.03929493   -0.04136539
     atom    4 type  3   force =     0.06802086   -0.03927313   -0.04134809
     The core correction contribution to forces
     atom    1 type  1   force =     0.00001046   -0.00000604   -0.00002318
     atom    2 type  2   force =     0.00001017   -0.00000587   -0.00002311
     atom    3 type  3   force =     0.00017782   -0.00010266   -0.00010895
     atom    4 type  3   force =     0.00017780   -0.00010265   -0.00010894
     The Hubbard contrib.    to forces
     atom    1 type  1   force =     0.00000000    0.00000000    0.00000000
     atom    2 type  2   force =     0.00000000    0.00000000    0.00000000
     atom    3 type  3   force =     0.00000000    0.00000000    0.00000000
     atom    4 type  3   force =     0.00000000    0.00000000    0.00000000
     The SCF correction term to forces
     atom    1 type  1   force =    -0.00000032    0.00000018   -0.00000003
     atom    2 type  2   force =     0.00000056   -0.00000032   -0.00000034
     atom    3 type  3   force =    -0.00000087    0.00000050    0.00000038
     atom    4 type  3   force =     0.00000068   -0.00000039   -0.00000026

     Total force =     0.000089     Total SCF correction =     0.000002
     Energy error            =      6.3E-06 Ry
     Gradient error          =      3.0E-05 Ry/Bohr

     bfgs converged in   5 scf cycles and   4 bfgs steps
     (criteria: energy <  1.0E-05 Ry, force <  1.0E-04 Ry/Bohr)

     End of BFGS Geometry Optimization

     Final energy             =    -705.3219473913 Ry

     File ./temp/mns.bfgs deleted, as requested
Begin final coordinates

ATOMIC_POSITIONS (crystal)
Mn1              0.3737302155        0.7506614567        0.7512166556
Mn2              0.8737305273        0.7506612124        0.7512165205
S                0.0012697159       -0.0006613968       -0.0012166380
S                0.5012695414       -0.0006612723       -0.0012165380
End final coordinates



     Writing all to output data dir ./temp/mns.save/ :
     XML data file, charge density, pseudopotentials, collected wavefunctions

     init_run     :      1.15s CPU      1.38s WALL (       1 calls)
     electrons    :    101.76s CPU    103.11s WALL (       5 calls)
     update_pot   :      0.54s CPU      0.55s WALL (       4 calls)
     forces       :      1.47s CPU      1.48s WALL (       5 calls)

     Called by init_run:
     wfcinit      :      0.57s CPU      0.62s WALL (       1 calls)
     wfcinit:atom :      0.01s CPU      0.01s WALL (      38 calls)
     wfcinit:wfcr :      0.53s CPU      0.59s WALL (      38 calls)
     potinit      :      0.21s CPU      0.24s WALL (       1 calls)
     hinit0       :      0.31s CPU      0.39s WALL (       1 calls)

     Called by electrons:
     c_bands      :     77.64s CPU     78.73s WALL (      70 calls)
     sum_band     :     12.28s CPU     12.47s WALL (      70 calls)
     v_of_rho     :      0.31s CPU      0.33s WALL (      70 calls)
     v_h          :      0.01s CPU      0.02s WALL (      70 calls)
     v_xc         :      0.31s CPU      0.33s WALL (      75 calls)
     newd         :      3.68s CPU      3.69s WALL (      70 calls)
     PAW_pot      :      9.08s CPU      9.16s WALL (      74 calls)
     mix_rho      :      0.06s CPU      0.06s WALL (      70 calls)

     Called by c_bands:
     init_us_2    :      1.16s CPU      1.17s WALL (    5700 calls)
     cegterg      :     75.02s CPU     76.08s WALL (    2660 calls)

     Called by sum_band:
     sum_band:wei :      0.05s CPU      0.05s WALL (      70 calls)
     sum_band:loo :      8.29s CPU      8.46s WALL (      70 calls)
     sum_band:buf :      0.23s CPU      0.23s WALL (    2660 calls)
     sum_band:ini :      0.50s CPU      0.50s WALL (    2660 calls)
     sum_band:cal :      3.19s CPU      3.29s WALL (    2812 calls)
     sum_band:bec :      0.18s CPU      0.18s WALL (    2812 calls)
     addusdens    :      3.81s CPU      3.81s WALL (      70 calls)
                                        0.00s GPU  (      70 calls)
     addusd:skk   :      0.01s CPU      0.01s WALL (     210 calls)
                                        0.00s GPU  (     210 calls)

     Called by *egterg:
     cdiaghg      :      9.67s CPU      9.78s WALL (   12150 calls)
     cegterg:over :      6.55s CPU      6.67s WALL (    9832 calls)
     cegterg:upda :      3.19s CPU      3.20s WALL (    9832 calls)
     cegterg:last :      7.40s CPU      7.41s WALL (    5569 calls)
     h_psi        :     37.85s CPU     38.64s WALL (   12530 calls)
     s_psi        :      7.02s CPU      7.06s WALL (   12530 calls)
     g_psi        :      0.12s CPU      0.12s WALL (    9832 calls)

     Called by h_psi:
     h_psi:calbec :      8.13s CPU      8.41s WALL (   12530 calls)
     vloc_psi     :     22.18s CPU     22.66s WALL (   12530 calls)
     add_vuspsi   :      7.15s CPU      7.19s WALL (   12530 calls)

     General routines
     calbec       :     12.14s CPU     12.54s WALL (   16102 calls)
     fft          :      0.33s CPU      0.40s WALL (     964 calls)
     ffts         :      0.09s CPU      0.09s WALL (     140 calls)
     fftw         :     22.86s CPU     23.34s WALL (  409162 calls)
     interpolate  :      0.11s CPU      0.11s WALL (      70 calls)

     Parallel routines

     PAW routines
     PAW_pot      :      9.08s CPU      9.16s WALL (      74 calls)
     PAW_symme    :      0.01s CPU      0.01s WALL (     144 calls)

     PWSCF        :   1m46.16s CPU   1m48.05s WALL


   This run was terminated on:  11:12:42  31Jan2025            

=------------------------------------------------------------------------------=
   JOB DONE.
=------------------------------------------------------------------------------=
