
     Program PWSCF v.7.3.1 starts on 23Dec2024 at 20:45: 4 

     This program is part of the open-source Quantum ESPRESSO suite
     for quantum simulation of materials; please cite
         "P. Giannozzi et al., J. Phys.:Condens. Matter 21 395502 (2009);
         "P. Giannozzi et al., J. Phys.:Condens. Matter 29 465901 (2017);
         "P. Giannozzi et al., J. Chem. Phys. 152 154105 (2020);
          URL http://www.quantum-espresso.org", 
     in publications or presentations arising from this work. More details at
     http://www.quantum-espresso.org/quote

     Parallel version (MPI), running on     4 processors

     MPI processes distributed on     1 nodes
     11856 MiB available memory on the printing compute node when the environment starts

     Reading input from vc_relax_NM.in

     Current dimensions of program PWSCF are:
     Max number of different atomic species (ntypx) = 10
     Max number of k-points (npk) =  40000
     Max angular momentum in pseudopotentials (lmaxx) =  4
     file Fe.pbesol-spn-kjpaw_psl.1.0.0.UPF: wavefunction(s)  3P 3D renormalized
     file Fe.pbesol-spn-kjpaw_psl.1.0.0.UPF: wavefunction(s)  3P 3D renormalized
     Found identity + ( -0.5000 -0.5000 -0.5000) symmetry
     This is a supercell, fractional translations are disabled

     R & G space division:  proc/nbgrp/npool/nimage =       4
     Subspace diagonalization in iterative solution of the eigenvalue problem:
     a serial algorithm will be used


     Parallelization info
     --------------------
     sticks:   dense  smooth     PW     G-vecs:    dense   smooth      PW
     Min         234     118     36                 5341     1880     338
     Max         236     119     37                 5342     1881     341
     Sum         941     473    145                21367     7521    1357

     Using Slab Decomposition



     bravais-lattice index     =            1
     lattice parameter (alat)  =       5.4104  a.u.
     unit-cell volume          =     158.3714 (a.u.)^3
     number of atoms/cell      =            2
     number of atomic types    =            2
     number of electrons       =        32.00
     number of Kohn-Sham states=           20
     kinetic-energy cutoff     =      50.0000  Ry
     charge density cutoff     =     400.0000  Ry
     scf convergence threshold =      1.0E-08
     mixing beta               =       0.7000
     number of iterations used =            8  plain     mixing
     energy convergence thresh.=      1.0E-05
     force convergence thresh. =      1.0E-04
     press convergence thresh. =      5.0E-01
     Exchange-correlation= SLA  PW   PSX  PSC
                           (   1   4  10   8   0   0   0)
     nstep                     =           50


     celldm(1)=   5.410353  celldm(2)=   0.000000  celldm(3)=   0.000000
     celldm(4)=   0.000000  celldm(5)=   0.000000  celldm(6)=   0.000000

     crystal axes: (cart. coord. in units of alat)
               a(1) = (   1.000000   0.000000   0.000000 )  
               a(2) = (   0.000000   1.000000   0.000000 )  
               a(3) = (   0.000000   0.000000   1.000000 )  

     reciprocal axes: (cart. coord. in units 2 pi/alat)
               b(1) = (  1.000000  0.000000  0.000000 )  
               b(2) = (  0.000000  1.000000  0.000000 )  
               b(3) = (  0.000000  0.000000  1.000000 )  


     PseudoPot. # 1 for Fe read from file:
     ./../../pseudos/Fe.pbesol-spn-kjpaw_psl.1.0.0.UPF
     MD5 check sum: e30d5f36a6f0cb983ee41abee56170da
     Pseudo is Projector augmented-wave + core cor, Zval = 16.0
     Generated using &quot;atomic&quot; code by A. Dal Corso  v.6.3
     Shape of augmentation charge: PSQ
     Using radial grid of 1191 points,  6 beta functions with: 
                l(1) =   0
                l(2) =   0
                l(3) =   1
                l(4) =   1
                l(5) =   2
                l(6) =   2
     Q(r) pseudized with 0 coefficients 


     PseudoPot. # 2 for Fe read from file:
     ./../../pseudos/Fe.pbesol-spn-kjpaw_psl.1.0.0.UPF
     MD5 check sum: e30d5f36a6f0cb983ee41abee56170da
     Pseudo is Projector augmented-wave + core cor, Zval = 16.0
     Generated using &quot;atomic&quot; code by A. Dal Corso  v.6.3
     Shape of augmentation charge: PSQ
     Using radial grid of 1191 points,  6 beta functions with: 
                l(1) =   0
                l(2) =   0
                l(3) =   1
                l(4) =   1
                l(5) =   2
                l(6) =   2
     Q(r) pseudized with 0 coefficients 


     atomic species   valence    mass     pseudopotential
     Fe1              16.00    55.84500     Fe( 1.00)
     Fe2              16.00    55.84500     Fe( 1.00)

     48 Sym. Ops., with inversion, found



   Cartesian axes

     site n.     atom                  positions (alat units)
         1        Fe1    tau(   1) = (   0.0000000   0.0000000   0.0000000  )
         2        Fe1    tau(   2) = (   0.5000000   0.5000000   0.5000000  )

     number of k points=    56  Gaussian smearing, width (Ry)=  0.0200
                       cart. coord. in units 2pi/alat
        k(    1) = (   0.0000000   0.0000000   0.0000000), wk =   0.0015026
        k(    2) = (   0.0000000   0.0000000   0.0909091), wk =   0.0090158
        k(    3) = (   0.0000000   0.0000000   0.1818182), wk =   0.0090158
        k(    4) = (   0.0000000   0.0000000   0.2727273), wk =   0.0090158
        k(    5) = (   0.0000000   0.0000000   0.3636364), wk =   0.0090158
        k(    6) = (   0.0000000   0.0000000   0.4545455), wk =   0.0090158
        k(    7) = (   0.0000000   0.0909091   0.0909091), wk =   0.0180316
        k(    8) = (   0.0000000   0.0909091   0.1818182), wk =   0.0360631
        k(    9) = (   0.0000000   0.0909091   0.2727273), wk =   0.0360631
        k(   10) = (   0.0000000   0.0909091   0.3636364), wk =   0.0360631
        k(   11) = (   0.0000000   0.0909091   0.4545455), wk =   0.0360631
        k(   12) = (   0.0000000   0.1818182   0.1818182), wk =   0.0180316
        k(   13) = (   0.0000000   0.1818182   0.2727273), wk =   0.0360631
        k(   14) = (   0.0000000   0.1818182   0.3636364), wk =   0.0360631
        k(   15) = (   0.0000000   0.1818182   0.4545455), wk =   0.0360631
        k(   16) = (   0.0000000   0.2727273   0.2727273), wk =   0.0180316
        k(   17) = (   0.0000000   0.2727273   0.3636364), wk =   0.0360631
        k(   18) = (   0.0000000   0.2727273   0.4545455), wk =   0.0360631
        k(   19) = (   0.0000000   0.3636364   0.3636364), wk =   0.0180316
        k(   20) = (   0.0000000   0.3636364   0.4545455), wk =   0.0360631
        k(   21) = (   0.0000000   0.4545455   0.4545455), wk =   0.0180316
        k(   22) = (   0.0909091   0.0909091   0.0909091), wk =   0.0120210
        k(   23) = (   0.0909091   0.0909091   0.1818182), wk =   0.0360631
        k(   24) = (   0.0909091   0.0909091   0.2727273), wk =   0.0360631
        k(   25) = (   0.0909091   0.0909091   0.3636364), wk =   0.0360631
        k(   26) = (   0.0909091   0.0909091   0.4545455), wk =   0.0360631
        k(   27) = (   0.0909091   0.1818182   0.1818182), wk =   0.0360631
        k(   28) = (   0.0909091   0.1818182   0.2727273), wk =   0.0721262
        k(   29) = (   0.0909091   0.1818182   0.3636364), wk =   0.0721262
        k(   30) = (   0.0909091   0.1818182   0.4545455), wk =   0.0721262
        k(   31) = (   0.0909091   0.2727273   0.2727273), wk =   0.0360631
        k(   32) = (   0.0909091   0.2727273   0.3636364), wk =   0.0721262
        k(   33) = (   0.0909091   0.2727273   0.4545455), wk =   0.0721262
        k(   34) = (   0.0909091   0.3636364   0.3636364), wk =   0.0360631
        k(   35) = (   0.0909091   0.3636364   0.4545455), wk =   0.0721262
        k(   36) = (   0.0909091   0.4545455   0.4545455), wk =   0.0360631
        k(   37) = (   0.1818182   0.1818182   0.1818182), wk =   0.0120210
        k(   38) = (   0.1818182   0.1818182   0.2727273), wk =   0.0360631
        k(   39) = (   0.1818182   0.1818182   0.3636364), wk =   0.0360631
        k(   40) = (   0.1818182   0.1818182   0.4545455), wk =   0.0360631
        k(   41) = (   0.1818182   0.2727273   0.2727273), wk =   0.0360631
        k(   42) = (   0.1818182   0.2727273   0.3636364), wk =   0.0721262
        k(   43) = (   0.1818182   0.2727273   0.4545455), wk =   0.0721262
        k(   44) = (   0.1818182   0.3636364   0.3636364), wk =   0.0360631
        k(   45) = (   0.1818182   0.3636364   0.4545455), wk =   0.0721262
        k(   46) = (   0.1818182   0.4545455   0.4545455), wk =   0.0360631
        k(   47) = (   0.2727273   0.2727273   0.2727273), wk =   0.0120210
        k(   48) = (   0.2727273   0.2727273   0.3636364), wk =   0.0360631
        k(   49) = (   0.2727273   0.2727273   0.4545455), wk =   0.0360631
        k(   50) = (   0.2727273   0.3636364   0.3636364), wk =   0.0360631
        k(   51) = (   0.2727273   0.3636364   0.4545455), wk =   0.0721262
        k(   52) = (   0.2727273   0.4545455   0.4545455), wk =   0.0360631
        k(   53) = (   0.3636364   0.3636364   0.3636364), wk =   0.0120210
        k(   54) = (   0.3636364   0.3636364   0.4545455), wk =   0.0360631
        k(   55) = (   0.3636364   0.4545455   0.4545455), wk =   0.0360631
        k(   56) = (   0.4545455   0.4545455   0.4545455), wk =   0.0120210

     Dense  grid:    21367 G-vectors     FFT dimensions: (  36,  36,  36)

     Smooth grid:     7521 G-vectors     FFT dimensions: (  25,  25,  25)

     Estimated max dynamical RAM per process >      30.20 MB

     Estimated total dynamical RAM >     120.80 MB

     Check: negative core charge=   -0.000006

     Initial potential from superposition of free atoms

     starting charge      31.9992, renormalised to      32.0000
     Starting wfcs are   20 randomized atomic wfcs
     Checking if some PAW data can be deallocated... 

     total cpu time spent up to now is        1.6 secs

     Self-consistent Calculation

     iteration #  1     ecut=    50.00 Ry     beta= 0.70
     Davidson diagonalization with overlap
     ethr =  1.00E-02,  avg # of iterations =  3.2

     Threshold (ethr) on eigenvalues was too large:
     Diagonalizing with lowered threshold

     Davidson diagonalization with overlap
     ethr =  2.05E-04,  avg # of iterations =  2.8

     total cpu time spent up to now is        4.1 secs

     total energy              =    -653.66566624 Ry
     estimated scf accuracy    <       0.08387454 Ry

     iteration #  2     ecut=    50.00 Ry     beta= 0.70
     Davidson diagonalization with overlap
     ethr =  2.62E-04,  avg # of iterations =  3.8

     total cpu time spent up to now is        5.8 secs

     total energy              =    -653.65192832 Ry
     estimated scf accuracy    <       0.33653189 Ry

     iteration #  3     ecut=    50.00 Ry     beta= 0.70
     Davidson diagonalization with overlap
     ethr =  2.62E-04,  avg # of iterations =  3.4

     total cpu time spent up to now is        7.2 secs

     total energy              =    -653.65352116 Ry
     estimated scf accuracy    <       1.96808456 Ry

     iteration #  4     ecut=    50.00 Ry     beta= 0.70
     Davidson diagonalization with overlap
     ethr =  2.62E-04,  avg # of iterations =  2.1

     total cpu time spent up to now is        8.4 secs

     total energy              =    -653.71206086 Ry
     estimated scf accuracy    <       0.00044387 Ry

     iteration #  5     ecut=    50.00 Ry     beta= 0.70
     Davidson diagonalization with overlap
     ethr =  1.39E-06,  avg # of iterations =  4.4

     total cpu time spent up to now is       10.0 secs

     total energy              =    -653.71252708 Ry
     estimated scf accuracy    <       0.00132156 Ry

     iteration #  6     ecut=    50.00 Ry     beta= 0.70
     Davidson diagonalization with overlap
     ethr =  1.39E-06,  avg # of iterations =  1.2

     total cpu time spent up to now is       11.0 secs

     total energy              =    -653.71254021 Ry
     estimated scf accuracy    <       0.00015375 Ry

     iteration #  7     ecut=    50.00 Ry     beta= 0.70
     Davidson diagonalization with overlap
     ethr =  4.80E-07,  avg # of iterations =  1.0

     total cpu time spent up to now is       12.0 secs

     total energy              =    -653.71253953 Ry
     estimated scf accuracy    <       0.00004051 Ry

     iteration #  8     ecut=    50.00 Ry     beta= 0.70
     Davidson diagonalization with overlap
     ethr =  1.27E-07,  avg # of iterations =  1.0

     total cpu time spent up to now is       13.0 secs

     total energy              =    -653.71254052 Ry
     estimated scf accuracy    <       0.00000101 Ry

     iteration #  9     ecut=    50.00 Ry     beta= 0.70
     Davidson diagonalization with overlap
     ethr =  3.16E-09,  avg # of iterations =  3.4

     total cpu time spent up to now is       14.2 secs

     total energy              =    -653.71254062 Ry
     estimated scf accuracy    <       0.00000020 Ry

     iteration # 10     ecut=    50.00 Ry     beta= 0.70
     Davidson diagonalization with overlap
     ethr =  6.38E-10,  avg # of iterations =  1.3

     total cpu time spent up to now is       15.2 secs

     total energy              =    -653.71254063 Ry
     estimated scf accuracy    <       0.00000007 Ry

     iteration # 11     ecut=    50.00 Ry     beta= 0.70
     Davidson diagonalization with overlap
     ethr =  2.17E-10,  avg # of iterations =  1.0

     total cpu time spent up to now is       16.1 secs

     total energy              =    -653.71254062 Ry
     estimated scf accuracy    <       0.00000003 Ry

     iteration # 12     ecut=    50.00 Ry     beta= 0.70
     Davidson diagonalization with overlap
     ethr =  8.99E-11,  avg # of iterations =  1.0

     total cpu time spent up to now is       17.1 secs

     End of self-consistent calculation

          k = 0.0000 0.0000 0.0000 (   949 PWs)   bands (ev):

   -69.3298 -69.2040 -35.5656 -35.5656 -35.5656 -35.2825 -35.2825 -35.2825
     9.1172  13.4914  13.4914  15.9809  15.9809  15.9809  17.4915  17.4915
    18.4069  18.4069  18.4069  27.0931

          k = 0.0000 0.0000 0.0909 (   944 PWs)   bands (ev):

   -69.3269 -69.2061 -35.5642 -35.5591 -35.5591 -35.2932 -35.2876 -35.2876
     9.2849  13.5641  13.5726  15.9775  15.9775  16.0283  17.4096  17.5188
    18.2530  18.2530  18.3552  26.0472

          k = 0.0000 0.0000 0.1818 (   952 PWs)   bands (ev):

   -69.3185 -69.2126 -35.5604 -35.5416 -35.5416 -35.3240 -35.3038 -35.3038
     9.7765  13.7308  13.7958  15.9705  15.9705  16.1631  17.1658  17.6031
    17.8624  17.8624  18.2050  23.9956

          k = 0.0000 0.0000 0.2727 (   944 PWs)   bands (ev):

   -69.3055 -69.2230 -35.5497 -35.5131 -35.5131 -35.3681 -35.3294 -35.3294
    10.5565  13.9056  14.1631  15.9927  15.9927  16.3769  16.7825  17.3824
    17.3824  17.7298  17.9719  21.9006

          k = 0.0000 0.0000 0.3636 (   940 PWs)   bands (ev):

   -69.2892 -69.2369 -35.5323 -35.4778 -35.4778 -35.4169 -35.3620 -35.3620
    11.5503  13.8850  14.6333  16.0784  16.0784  16.2943  16.6593  16.9190
    16.9190  17.6741  17.9203  20.1157

          k = 0.0000 0.0000 0.4545 (   936 PWs)   bands (ev):

   -69.2713 -69.2534 -35.5034 -35.4638 -35.4389 -35.4389 -35.3994 -35.3994
    12.6069  13.4675  15.1714  15.7408  16.2535  16.2535  16.5333  16.5333
    16.9878  17.3382  18.2373  18.8897

          k = 0.0000 0.0909 0.0909 (   941 PWs)   bands (ev):

   -69.3241 -69.2082 -35.5737 -35.5529 -35.5430 -35.3143 -35.2926 -35.2823
     9.4506  13.6404  13.6413  15.8850  15.9629  16.1635  17.3977  17.4952
    17.9948  18.0992  18.4293  26.1224

          k = 0.0000 0.0909 0.1818 (   947 PWs)   bands (ev):

   -69.3160 -69.2144 -35.5786 -35.5360 -35.5176 -35.3524 -35.3083 -35.2898
     9.9351  13.8068  13.8573  15.8121  15.9349  16.3608  17.2099  17.5578
    17.5637  17.7215  18.3741  24.2134

          k = 0.0000 0.0909 0.2727 (   941 PWs)   bands (ev):

   -69.3034 -69.2243 -35.5742 -35.5095 -35.4856 -35.3997 -35.3326 -35.3087
    10.7023  13.9727  14.1984  15.7893  15.9157  16.6175  16.9013  17.0749
    17.2776  17.6999  18.1932  22.0969

          k = 0.0000 0.0909 0.3636 (   939 PWs)   bands (ev):

   -69.2878 -69.2376 -35.5604 -35.4755 -35.4496 -35.4495 -35.3636 -35.3375
    11.6719  13.9435  14.6352  15.8442  15.8620  16.5858  16.6265  16.8929
    16.9234  17.8948  17.9240  20.2678

          k = 0.0000 0.0909 0.4545 (   940 PWs)   bands (ev):

   -69.2706 -69.2534 -35.5347 -35.4963 -35.4384 -35.4112 -35.3994 -35.3722
    12.6940  13.5231  15.1216  15.5891  15.9973  16.2528  16.5006  16.6357
    17.2620  17.6011  18.2350  18.9574

          k = 0.0000 0.1818 0.1818 (   945 PWs)   bands (ev):

   -69.3087 -69.2196 -35.5967 -35.5209 -35.4823 -35.3992 -35.3217 -35.2833
    10.3969  13.9485  14.0693  15.6296  15.8630  16.6631  17.0707  17.2526
    17.3913  17.5135  18.4896  24.2377

          k = 0.0000 0.1818 0.2727 (   938 PWs)   bands (ev):

   -69.2975 -69.2282 -35.6050 -35.4971 -35.4516 -35.4444 -35.3420 -35.2899
    11.1169  14.0572  14.4012  15.5204  15.8000  16.5776  17.0013  17.0564
    17.1200  17.6133  18.4516  22.4859

          k = 0.0000 0.1818 0.3636 (   936 PWs)   bands (ev):

   -69.2836 -69.2397 -35.6008 -35.5037 -35.4677 -35.4062 -35.3692 -35.3082
    12.0010  13.9857  14.7874  15.4989  15.7189  16.1409  16.8757  16.9550
    17.3533  17.8153  18.2811  20.6047

          k = 0.0000 0.1818 0.4545 (   944 PWs)   bands (ev):

   -69.2685 -69.2534 -35.5831 -35.5497 -35.4346 -35.4012 -35.3691 -35.3355
    12.8917  13.5961  15.1851  15.5189  15.5901  15.8053  16.8578  16.8839
    17.6984  18.0176  18.2226  19.1205

          k = 0.0000 0.2727 0.2727 (   943 PWs)   bands (ev):

   -69.2885 -69.2345 -35.6264 -35.5074 -35.4782 -35.4040 -35.3581 -35.2838
    11.7334  14.0202  14.7814  15.3166  15.7698  16.0936  16.9072  17.2623
    17.3946  17.5585  18.5712  22.2347

          k = 0.0000 0.2727 0.3636 (   945 PWs)   bands (ev):

   -69.2774 -69.2432 -35.6338 -35.5596 -35.4553 -35.3790 -35.3660 -35.2900
    12.4306  13.8443  15.2151  15.2163  15.6844  15.8378  16.9375  17.2433
    17.6969  17.7688  18.5364  20.8022

          k = 0.0000 0.2727 0.4545 (   944 PWs)   bands (ev):

   -69.2654 -69.2537 -35.6260 -35.6004 -35.4293 -35.4035 -35.3327 -35.3068
    13.0552  13.5247  15.2377  15.3978  15.6016  15.8339  17.0857  17.2069
    18.1034  18.1729  18.3703  19.2618

          k = 0.0000 0.3636 0.3636 (   946 PWs)   bands (ev):

   -69.2699 -69.2482 -35.6541 -35.6069 -35.4401 -35.3915 -35.3321 -35.2835
    12.8220  13.6098  15.0404  15.3230  15.7750  16.2836  17.0860  17.3914
    17.6265  18.1376  18.6417  20.3201

          k = 0.0000 0.3636 0.4545 (   949 PWs)   bands (ev):

   -69.2621 -69.2546 -35.6565 -35.6407 -35.4232 -35.4069 -35.3059 -35.2894
    13.1166  13.3662  14.9911  15.0880  16.2938  16.5788  17.2712  17.4015
    18.0186  18.4215  18.5995  19.1565

          k = 0.0000 0.4545 0.4545 (   948 PWs)   bands (ev):

   -69.2589 -69.2563 -35.6701 -35.6649 -35.4168 -35.4109 -35.2886 -35.2838
    13.1511  13.2304  14.8805  14.9113  17.0406  17.3804  17.4028  17.6520
    17.6720  18.5797  18.6241  18.6847

          k = 0.0909 0.0909 0.0909 (   949 PWs)   bands (ev):

   -69.3214 -69.2102 -35.5675 -35.5675 -35.5232 -35.3343 -35.2883 -35.2883
     9.6132  13.7093  13.7093  15.8668  15.8668  16.2935  17.4292  17.4292
    17.6509  18.2762  18.2762  26.4251

          k = 0.0909 0.0909 0.1818 (   943 PWs)   bands (ev):

   -69.3135 -69.2160 -35.5790 -35.5492 -35.4936 -35.3731 -35.3047 -35.2903
    10.0929  13.8853  13.9115  15.7600  15.8242  16.5330  17.1737  17.2524
    17.5293  17.8987  18.3167  24.4400

          k = 0.0909 0.0909 0.2727 (   934 PWs)   bands (ev):

   -69.3014 -69.2255 -35.5806 -35.5207 -35.4603 -35.4205 -35.3305 -35.3038
    10.8478  14.0569  14.2289  15.7205  15.7676  16.7060  16.8252  16.9839
    17.4419  17.6747  18.2059  22.3054

          k = 0.0909 0.0909 0.3636 (   941 PWs)   bands (ev):

   -69.2864 -69.2382 -35.5724 -35.4851 -35.4697 -35.4261 -35.3644 -35.3267
    11.7955  14.0185  14.6279  15.6733  15.7725  16.3402  16.7118  17.0152
    17.1505  17.8756  17.9876  20.4448

          k = 0.0909 0.0909 0.4545 (   938 PWs)   bands (ev):

   -69.2698 -69.2533 -35.5503 -35.5148 -35.4444 -35.4030 -35.3904 -35.3568
    12.7857  13.5927  15.0628  15.4491  15.9151  16.1077  16.5929  16.7151
    17.4581  17.7277  18.2630  19.0724

          k = 0.0909 0.1818 0.1818 (   941 PWs)   bands (ev):

   -69.3065 -69.2210 -35.5899 -35.5421 -35.4595 -35.4151 -35.3151 -35.2894
    10.5506  14.0337  14.1159  15.5978  15.7267  16.6678  16.8514  17.2923
    17.4865  17.7012  18.3395  24.5276

          k = 0.0909 0.1818 0.2727 (   942 PWs)   bands (ev):

   -69.2957 -69.2292 -35.6004 -35.5168 -35.4646 -35.4247 -35.3383 -35.2941
    11.2619  14.1602  14.4154  15.4797  15.6476  16.2202  17.1550  17.2153
    17.3348  17.6003  18.3173  22.7363

          k = 0.0909 0.1818 0.3636 (   939 PWs)   bands (ev):

   -69.2824 -69.2402 -35.5997 -35.5136 -35.4828 -35.3905 -35.3692 -35.3082
    12.1314  14.0933  14.7449  15.4222  15.6030  15.9350  16.9924  17.0497
    17.5457  17.8405  18.1744  20.8497

          k = 0.0909 0.1818 0.4545 (   941 PWs)   bands (ev):

   -69.2678 -69.2533 -35.5854 -35.5557 -35.4447 -35.4055 -35.3586 -35.3303
    13.0022  13.6937  15.0641  15.3081  15.6525  15.7758  16.9034  16.9168
    17.7513  17.9583  18.3915  19.3616

          k = 0.0909 0.2727 0.2727 (   947 PWs)   bands (ev):

   -69.2871 -69.2352 -35.6194 -35.5150 -35.4973 -35.3895 -35.3555 -35.2902
    11.8776  14.1268  14.7872  15.2779  15.6022  15.8122  17.1411  17.2885
    17.5572  17.6259  18.4026  22.5607

          k = 0.0909 0.2727 0.3636 (   943 PWs)   bands (ev):

   -69.2763 -69.2435 -35.6280 -35.5621 -35.4701 -35.3787 -35.3575 -35.2949
    12.5707  13.9532  15.1531  15.1771  15.5628  15.6652  17.0696  17.2562
    17.6635  18.0769  18.3470  21.1459

          k = 0.0909 0.2727 0.4545 (   939 PWs)   bands (ev):

   -69.2648 -69.2536 -35.6216 -35.5993 -35.4387 -35.4074 -35.3297 -35.3085
    13.1819  13.6395  15.1656  15.2271  15.6297  15.7338  17.1333  17.2063
    17.8680  18.1491  18.6704  19.6759

          k = 0.0909 0.3636 0.3636 (   943 PWs)   bands (ev):

   -69.2691 -69.2483 -35.6463 -35.6049 -35.4512 -35.3926 -35.3296 -35.2905
    12.9605  13.7197  15.0088  15.2355  15.7173  16.0267  17.1683  17.3983
    17.6292  18.3829  18.4958  20.7948

          k = 0.0909 0.3636 0.4545 (   941 PWs)   bands (ev):

   -69.2615 -69.2544 -35.6494 -35.6353 -35.4305 -35.4100 -35.3084 -35.2951
    13.2456  13.4815  14.9628  15.0386  16.1815  16.3512  17.3101  17.4033
    17.8106  18.1975  18.9970  19.8145

          k = 0.0909 0.4545 0.4545 (   954 PWs)   bands (ev):

   -69.2585 -69.2560 -35.6622 -35.6579 -35.4223 -35.4155 -35.2954 -35.2915
    13.2701  13.3445  14.8536  14.8825  16.8292  17.0271  17.4279  17.4686
    17.6731  17.9895  19.3100  19.6392

          k = 0.1818 0.1818 0.1818 (   943 PWs)   bands (ev):

   -69.3003 -69.2253 -35.5704 -35.5704 -35.4520 -35.4255 -35.3072 -35.3072
    10.9943  14.2493  14.2493  15.5084  15.5084  16.1355  17.2141  17.4034
    17.4034  17.9796  17.9796  25.3010

          k = 0.1818 0.1818 0.2727 (   939 PWs)   bands (ev):

   -69.2906 -69.2323 -35.5912 -35.5399 -35.4960 -35.3934 -35.3346 -35.3040
    11.6771  14.4415  14.4496  15.3796  15.3930  15.7193  17.2802  17.5471
    17.5781  17.6435  18.0848  23.3188

          k = 0.1818 0.1818 0.3636 (   937 PWs)   bands (ev):

   -69.2788 -69.2417 -35.5998 -35.5385 -35.5013 -35.3705 -35.3642 -35.3094
    12.4890  14.3307  14.6824  15.2569  15.3882  15.6120  17.1485  17.2564
    17.6775  18.0375  18.1457  21.4057

          k = 0.1818 0.1818 0.4545 (   937 PWs)   bands (ev):

   -69.2658 -69.2532 -35.5946 -35.5729 -35.4580 -35.4129 -35.3401 -35.3210
    13.2735  13.8978  14.9063  15.0997  15.5287  15.6332  17.0563  17.0780
    17.7876  17.9098  18.8322  19.8787

          k = 0.1818 0.2727 0.2727 (   944 PWs)   bands (ev):

   -69.2828 -69.2374 -35.5982 -35.5345 -35.5316 -35.3649 -35.3484 -35.3096
    12.2885  14.4270  14.8087  15.1849  15.2955  15.3419  17.3779  17.4823
    17.5387  18.0464  18.1171  23.3925

          k = 0.1818 0.2727 0.3636 (   953 PWs)   bands (ev):

   -69.2733 -69.2445 -35.6103 -35.5709 -35.4995 -35.3795 -35.3428 -35.3112
    12.9560  14.2477  14.9649  15.0700  15.3192  15.3632  17.3184  17.3309
    17.6437  18.0221  18.6530  21.9289

          k = 0.1818 0.2727 0.4545 (   945 PWs)   bands (ev):

   -69.2631 -69.2532 -35.6111 -35.5979 -35.4593 -35.4177 -35.3259 -35.3156
    13.5153  13.9295  14.9694  15.0044  15.4778  15.5363  17.2609  17.2749
    17.7705  17.9095  19.3645  20.4405

          k = 0.1818 0.3636 0.3636 (   955 PWs)   bands (ev):

   -69.2668 -69.2485 -35.6235 -35.6008 -35.4792 -35.3963 -35.3274 -35.3116
    13.3500  14.0078  14.9328  15.0425  15.5362  15.5518  17.3486  17.4475
    17.6317  18.0041  19.2124  21.8053

          k = 0.1818 0.3636 0.4545 (   957 PWs)   bands (ev):

   -69.2601 -69.2538 -35.6288 -35.6215 -35.4509 -35.4215 -35.3177 -35.3135
    13.5912  13.7866  14.8797  14.9227  15.8554  15.8721  17.4049  17.4433
    17.7183  17.8819  19.9028  20.8501

          k = 0.1818 0.4545 0.4545 (   954 PWs)   bands (ev):

   -69.2573 -69.2551 -35.6384 -35.6360 -35.4381 -35.4276 -35.3139 -35.3128
    13.6052  13.6609  14.7984  14.8176  16.2909  16.2988  17.4935  17.5132
    17.6831  17.7714  20.4367  20.8559

          k = 0.2727 0.2727 0.2727 (   952 PWs)   bands (ev):

   -69.2765 -69.2411 -35.5652 -35.5652 -35.5601 -35.3458 -35.3400 -35.3400
    12.8853  14.8257  14.8257  14.8924  15.0677  15.0677  17.5028  17.5028
    17.7119  17.7119  18.6827  24.5173

          k = 0.2727 0.2727 0.3636 (   953 PWs)   bands (ev):

   -69.2688 -69.2463 -35.5895 -35.5832 -35.5225 -35.3799 -35.3334 -35.3328
    13.4904  14.4926  14.8365  14.9605  15.0465  15.2207  17.4536  17.5019
    17.6261  17.8081  19.3155  22.8063

          k = 0.2727 0.2727 0.4545 (   952 PWs)   bands (ev):

   -69.2607 -69.2530 -35.6009 -35.5987 -35.4752 -35.4262 -35.3278 -35.3275
    13.9060  14.1887  14.8490  14.8843  15.2542  15.3909  17.4113  17.4132
    17.7247  17.7937  20.1173  21.2646

          k = 0.2727 0.3636 0.3636 (   951 PWs)   bands (ev):

   -69.2634 -69.2492 -35.5950 -35.5878 -35.5118 -35.3958 -35.3448 -35.3306
    13.9210  14.3353  14.8483  14.9189  15.0820  15.3157  17.5352  17.5401
    17.6336  17.7678  20.0330  23.0550

          k = 0.2727 0.3636 0.4545 (   956 PWs)   bands (ev):

   -69.2580 -69.2532 -35.6014 -35.5980 -35.4745 -35.4318 -35.3413 -35.3344
    14.0759  14.1738  14.8074  14.8422  15.3740  15.4954  17.5246  17.5350
    17.6969  17.7493  20.8887  21.9928

          k = 0.2727 0.4545 0.4545 (   959 PWs)   bands (ev):

   -69.2557 -69.2540 -35.6032 -35.6010 -35.4585 -35.4419 -35.3481 -35.3434
    14.0768  14.0976  14.7355  14.7609  15.6805  15.7288  17.5827  17.5872
    17.6928  17.7198  21.6691  22.2286

          k = 0.3636 0.3636 0.3636 (   949 PWs)   bands (ev):

   -69.2596 -69.2506 -35.5892 -35.5423 -35.5423 -35.3878 -35.3878 -35.3410
    14.4202  14.4905  14.7933  14.7933  15.0772  15.0772  17.6324  17.6324
    17.6572  17.6572  20.9042  24.4687

          k = 0.3636 0.3636 0.4545 (   954 PWs)   bands (ev):

   -69.2559 -69.2528 -35.5809 -35.5653 -35.4907 -35.4382 -35.3742 -35.3570
    14.4008  14.4729  14.7994  14.8973  15.0781  15.2332  17.6223  17.6245
    17.6906  17.7074  21.8999  23.1241

          k = 0.3636 0.4545 0.4545 (   950 PWs)   bands (ev):

   -69.2542 -69.2531 -35.5637 -35.5536 -35.4797 -35.4503 -35.3931 -35.3802
    14.4772  14.5539  14.7242  14.8048  15.2197  15.2788  17.6613  17.6643
    17.7012  17.7087  22.9425  23.7331

          k = 0.4545 0.4545 0.4545 (   946 PWs)   bands (ev):

   -69.2531 -69.2527 -35.5264 -35.4998 -35.4998 -35.4456 -35.4456 -35.4184
    14.6548  14.7864  14.7864  14.9680  14.9680  14.9869  17.7057  17.7057
    17.7110  17.7110  24.2215  25.3548

     the Fermi energy is    17.5030 ev

!    total energy              =    -653.71254063 Ry
     total all-electron energy =     -5086.363959 Ry
     estimated scf accuracy    <          4.1E-10 Ry
     smearing contrib. (-TS)   =      -0.02070044 Ry
     internal energy E=F+TS    =    -653.69184019 Ry

     The total energy is F=E-TS. E is the sum of the following terms:
     one-electron contribution =    -224.70603966 Ry
     hartree contribution      =     131.37795105 Ry
     xc contribution           =     -54.52825445 Ry
     ewald contribution        =    -344.39297617 Ry
     one-center paw contrib.   =    -161.44252096 Ry

     convergence has been achieved in  12 iterations

     Forces acting on atoms (cartesian axes, Ry/au):

     atom    1 type  1   force =     0.00000000    0.00000000    0.00000000
     atom    2 type  1   force =     0.00000000    0.00000000    0.00000000

     Total force =     0.000000     Total SCF correction =     0.000000


     Computing stress (Cartesian axis) and pressure

          total   stress  (Ry/bohr**3)                   (kbar)     P=     -540.01
  -0.00367088   0.00000000   0.00000000         -540.01        0.00        0.00
   0.00000000  -0.00367088   0.00000000            0.00     -540.01        0.00
   0.00000000   0.00000000  -0.00367088            0.00        0.00     -540.01


     BFGS Geometry Optimization
     Energy error            =      0.0E+00 Ry
     Gradient error          =      0.0E+00 Ry/Bohr
     Cell gradient error     =      5.4E+02 kbar

     number of scf cycles    =   1
     number of bfgs steps    =   0

     enthalpy           new  =    -653.7125406251 Ry

     new trust radius        =       0.2309824843 bohr
ibrav =      1
 celldm(1) =      4.91383343
Input lattice vectors:
     0.90822790     0.00000000     0.00000000
     0.00000000     0.90822790     0.00000000
     0.00000000     0.00000000     0.90822790
New lattice vectors in INITIAL alat:
     0.90822790     0.00000000     0.00000000
     0.00000000     0.90822790     0.00000000
     0.00000000     0.00000000     0.90822790
New lattice vectors in NEW alat (for information only):
     1.00000000     0.00000000     0.00000000
     0.00000000     1.00000000     0.00000000
     0.00000000     0.00000000     1.00000000
Discrepancy in bohr =     0.000000    0.000000    0.000000
     new conv_thr            =       0.0000000100 Ry

     new unit-cell volume =    118.64824 a.u.^3 (    17.58185 Ang^3 )
     density =     10.54869 g/cm^3

CELL_PARAMETERS (alat=  5.41035287)
   0.908227901   0.000000000   0.000000000
   0.000000000   0.908227901   0.000000000
   0.000000000   0.000000000   0.908227901

ATOMIC_POSITIONS (crystal)
Fe1              0.0000000000        0.0000000000        0.0000000000
Fe1              0.5000000000        0.5000000000        0.5000000000



     Writing config-only to output data dir ./temp/fe-nm.save/ :
     XML data file
     NEW-OLD atomic charge density approx. for the potential

     Check: negative core charge=   -0.000002

     total cpu time spent up to now is       18.5 secs

     Self-consistent Calculation

     iteration #  1     ecut=    50.00 Ry     beta= 0.70
     Davidson diagonalization with overlap
     ethr =  1.00E-06,  avg # of iterations =  8.6

     total cpu time spent up to now is       21.5 secs

     total energy              =    -653.70148201 Ry
     estimated scf accuracy    <       0.09364191 Ry

     iteration #  2     ecut=    50.00 Ry     beta= 0.70
     Davidson diagonalization with overlap
     ethr =  2.93E-04,  avg # of iterations =  3.6

     total cpu time spent up to now is       23.6 secs

     total energy              =    -653.72646265 Ry
     estimated scf accuracy    <       0.34884621 Ry

     iteration #  3     ecut=    50.00 Ry     beta= 0.70
     Davidson diagonalization with overlap
     ethr =  2.93E-04,  avg # of iterations =  2.9

     total cpu time spent up to now is       24.9 secs

     total energy              =    -653.74877239 Ry
     estimated scf accuracy    <       0.01816737 Ry

     iteration #  4     ecut=    50.00 Ry     beta= 0.70
     Davidson diagonalization with overlap
     ethr =  5.68E-05,  avg # of iterations =  1.9

     total cpu time spent up to now is       26.1 secs

     total energy              =    -653.72820744 Ry
     estimated scf accuracy    <       0.01632869 Ry

     iteration #  5     ecut=    50.00 Ry     beta= 0.70
     Davidson diagonalization with overlap
     ethr =  5.10E-05,  avg # of iterations =  2.0

     total cpu time spent up to now is       27.2 secs

     total energy              =    -653.72743634 Ry
     estimated scf accuracy    <       0.00017365 Ry

     iteration #  6     ecut=    50.00 Ry     beta= 0.70
     Davidson diagonalization with overlap
     ethr =  5.43E-07,  avg # of iterations =  3.1

     total cpu time spent up to now is       28.7 secs

     total energy              =    -653.72708086 Ry
     estimated scf accuracy    <       0.00014415 Ry

     iteration #  7     ecut=    50.00 Ry     beta= 0.70
     Davidson diagonalization with overlap
     ethr =  4.50E-07,  avg # of iterations =  2.1

     total cpu time spent up to now is       30.0 secs

     total energy              =    -653.72697107 Ry
     estimated scf accuracy    <       0.00000255 Ry

     iteration #  8     ecut=    50.00 Ry     beta= 0.70
     Davidson diagonalization with overlap
     ethr =  7.97E-09,  avg # of iterations =  2.9

     total cpu time spent up to now is       31.4 secs

     total energy              =    -653.72697199 Ry
     estimated scf accuracy    <       0.00000301 Ry

     iteration #  9     ecut=    50.00 Ry     beta= 0.70
     Davidson diagonalization with overlap
     ethr =  7.97E-09,  avg # of iterations =  2.0

     total cpu time spent up to now is       32.6 secs

     total energy              =    -653.72697226 Ry
     estimated scf accuracy    <       0.00000015 Ry

     iteration # 10     ecut=    50.00 Ry     beta= 0.70
     Davidson diagonalization with overlap
     ethr =  4.69E-10,  avg # of iterations =  3.1

     total cpu time spent up to now is       33.8 secs

     End of self-consistent calculation

          k = 0.0000 0.0000 0.0000 (   949 PWs)   bands (ev):

   -62.5110 -62.1082 -28.8001 -28.8001 -28.8001 -28.1007 -28.1007 -28.1007
    14.7109  18.6902  18.6902  22.4851  22.4851  22.4851  24.7214  24.7214
    26.1912  26.1912  26.1912  36.7098

          k = 0.0000 0.0000 0.1001 (   944 PWs)   bands (ev):

   -62.5016 -62.1148 -28.8002 -28.7850 -28.7850 -28.1303 -28.1140 -28.1140
    14.9243  18.7974  18.8086  22.4783  22.4783  22.5541  24.5856  24.7739
    25.9487  25.9487  26.1094  35.5860

          k = 0.0000 0.0000 0.2002 (   952 PWs)   bands (ev):

   -62.4743 -62.1349 -28.7983 -28.7414 -28.7414 -28.2123 -28.1531 -28.1531
    15.5428  19.1137  19.1230  22.4729  22.4729  22.7566  24.1912  24.9236
    25.3436  25.3436  25.8726  33.2831

          k = 0.0000 0.0000 0.3003 (   944 PWs)   bands (ev):

   -62.4322 -62.1673 -28.7843 -28.6730 -28.6730 -28.3301 -28.2153 -28.2153
    16.4988  19.5068  19.6228  22.5086  22.5086  23.0800  23.5773  24.6030
    24.6030  25.1564  25.5042  30.8310

          k = 0.0000 0.0000 0.4004 (   940 PWs)   bands (ev):

   -62.3794 -62.2112 -28.7488 -28.5864 -28.5864 -28.4608 -28.2961 -28.2961
    17.6591  19.7400  20.2959  22.6345  22.6345  22.8053  23.5029  23.8965
    23.8965  25.0399  25.4861  28.6541

          k = 0.0000 0.0000 0.5005 (   936 PWs)   bands (ev):

   -62.3214 -62.2638 -28.6821 -28.5835 -28.4893 -28.4893 -28.3899 -28.3899
    18.7859  19.5456  21.0908  21.9506  22.8945  22.8945  23.3149  23.3149
    23.9959  24.5223  26.0246  27.0190

          k = 0.0000 0.1001 0.1001 (   941 PWs)   bands (ev):

   -62.4924 -62.1211 -28.8251 -28.7704 -28.7464 -28.1844 -28.1266 -28.1013
    15.1332  18.9018  18.9258  22.3350  22.4588  22.7588  24.5678  24.7337
    25.5464  25.7105  26.2244  35.6756

          k = 0.0000 0.1001 0.2002 (   947 PWs)   bands (ev):

   -62.4661 -62.1402 -28.8430 -28.7284 -28.6859 -28.2834 -28.1639 -28.1194
    15.7377  19.1901  19.2542  22.2219  22.4179  23.0667  24.2691  24.8606
    24.8729  25.1266  26.1363  33.5559

          k = 0.0000 0.1001 0.3003 (   941 PWs)   bands (ev):

   -62.4253 -62.1712 -28.8423 -28.6627 -28.6092 -28.4087 -28.2232 -28.1676
    16.6666  19.5778  19.7263  22.1897  22.3789  23.4519  23.7793  24.1318
    24.4438  25.1016  25.8495  31.0745

          k = 0.0000 0.1001 0.4004 (   939 PWs)   bands (ev):

   -62.3744 -62.2131 -28.8157 -28.5794 -28.5411 -28.5200 -28.3005 -28.2395
    17.7817  19.8001  20.3450  22.2565  22.2711  23.3194  23.4462  23.8592
    23.9070  25.4292  25.4418  28.8364

          k = 0.0000 0.1001 0.5005 (   940 PWs)   bands (ev):

   -62.3186 -62.2636 -28.7559 -28.6618 -28.4862 -28.4237 -28.3904 -28.3272
    18.8531  19.5872  21.0641  21.7781  22.4982  22.8907  23.2420  23.4637
    24.4116  24.9331  26.0181  27.1032

          k = 0.0000 0.2002 0.2002 (   945 PWs)   bands (ev):

   -62.4424 -62.1562 -28.8929 -28.6909 -28.6015 -28.4054 -28.1959 -28.1031
    16.2954  19.3888  19.6233  21.9465  22.3081  23.5279  24.1226  24.3561
    24.6230  24.7796  26.3140  33.5293

          k = 0.0000 0.2002 0.3003 (   938 PWs)   bands (ev):

   -62.4057 -62.1828 -28.9216 -28.6325 -28.5441 -28.5098 -28.2469 -28.1204
    17.1283  19.6306  20.1401  21.7742  22.2188  23.3683  24.0318  24.1154
    24.1551  24.9597  26.2501  31.5107

          k = 0.0000 0.2002 0.4004 (   936 PWs)   bands (ev):

   -62.3604 -62.2189 -28.9188 -28.6802 -28.5588 -28.4148 -28.3140 -28.1671
    18.0780  19.7371  20.7144  21.7432  22.1100  22.7100  23.8279  23.9122
    24.5590  25.3113  25.9837  29.2223

          k = 0.0000 0.2002 0.5005 (   944 PWs)   bands (ev):

   -62.3112 -62.2628 -28.8777 -28.7960 -28.4764 -28.3926 -28.3216 -28.2366
    18.9332  19.5161  21.2967  21.8073  21.8819  22.2054  23.7906  23.8278
    25.0854  25.5761  25.9862  27.2959

          k = 0.0000 0.3003 0.3003 (   943 PWs)   bands (ev):

   -62.3760 -62.2023 -28.9811 -28.6892 -28.5856 -28.4097 -28.2855 -28.1052
    17.7573  19.6140  20.7556  21.4653  22.2524  22.6337  23.8879  24.4111
    24.6283  24.8695  26.4326  31.0967

          k = 0.0000 0.3003 0.4004 (   945 PWs)   bands (ev):

   -62.3396 -62.2292 -29.0067 -28.8228 -28.5272 -28.3366 -28.3153 -28.1215
    18.3723  19.4771  21.3135  21.4302  22.0231  22.4557  23.9179  24.3895
    25.1137  25.1996  26.3774  29.3587

          k = 0.0000 0.3003 0.5005 (   944 PWs)   bands (ev):

   -62.3005 -62.2627 -28.9899 -28.9269 -28.4622 -28.3971 -28.2319 -28.1655
    18.8568  19.2180  21.3492  21.5868  22.0349  22.4375  24.1407  24.3348
    25.7106  25.8836  26.1197  27.4097

          k = 0.0000 0.4004 0.4004 (   946 PWs)   bands (ev):

   -62.3145 -62.2446 -29.0616 -28.9453 -28.4882 -28.3671 -28.2302 -28.1067
    18.5592  19.1661  21.0474  21.4787  22.2811  23.2450  24.1470  24.6372
    24.9844  25.7629  26.5428  28.6434

          k = 0.0000 0.4004 0.5005 (   949 PWs)   bands (ev):

   -62.2887 -62.2646 -29.0715 -29.0319 -28.4458 -28.4045 -28.1644 -28.1221
    18.7032  18.8962  20.9787  21.1232  23.0705  23.5732  24.4409  24.6562
    25.6142  26.2027  26.4758  27.1502

          k = 0.0000 0.5005 0.5005 (   948 PWs)   bands (ev):

   -62.2779 -62.2695 -29.1091 -29.0956 -28.4295 -28.4152 -28.1222 -28.1080
    18.6212  18.6824  20.8088  20.8573  24.1446  24.6524  24.6529  25.0448
    25.0688  26.3010  26.5128  26.6089

          k = 0.1001 0.1001 0.1001 (   949 PWs)   bands (ev):

   -62.4837 -62.1272 -28.8097 -28.8097 -28.6961 -28.2344 -28.1153 -28.1153
    15.3384  19.0231  19.0231  22.3095  22.3095  22.9679  24.6311  24.6311
    25.0197  25.9847  25.9847  36.0860

          k = 0.1001 0.1001 0.2002 (   943 PWs)   bands (ev):

   -62.4581 -62.1452 -28.8447 -28.7646 -28.6254 -28.3362 -28.1557 -28.1215
    15.9317  19.3085  19.3429  22.1439  22.2421  23.3321  24.2874  24.3395
    24.8038  25.3940  26.0454  33.8487

          k = 0.1001 0.1001 0.3003 (   934 PWs)   bands (ev):

   -62.4186 -62.1747 -28.8591 -28.6941 -28.5455 -28.4620 -28.2199 -28.1557
    16.8374  19.7203  19.7613  22.0850  22.1435  23.5742  23.7699  23.9179
    24.6874  25.0555  25.8693  31.3407

          k = 0.1001 0.1001 0.4004 (   941 PWs)   bands (ev):

   -62.3695 -62.2150 -28.8449 -28.6048 -28.5922 -28.4597 -28.3039 -28.2128
    17.9137  19.9101  20.3432  21.9682  22.1743  23.0239  23.5117  24.0424
    24.2553  25.4108  25.5356  29.0623

          k = 0.1001 0.1001 0.5005 (   938 PWs)   bands (ev):

   -62.3160 -62.2631 -28.7947 -28.7080 -28.5041 -28.4010 -28.3713 -28.2870
    18.9395  19.6621  20.9887  21.5827  22.3984  22.6741  23.3637  23.5701
    24.7186  25.1338  26.0551  27.2520

          k = 0.1001 0.2002 0.2002 (   941 PWs)   bands (ev):

   -62.4351 -62.1605 -28.8760 -28.7490 -28.5420 -28.4463 -28.1819 -28.1182
    16.4849  19.5254  19.6908  21.8963  22.0940  23.5232  23.8116  24.4234
    24.7360  25.0907  26.0764  33.9166

          k = 0.1001 0.2002 0.3003 (   942 PWs)   bands (ev):

   -62.3997 -62.1859 -28.9096 -28.6864 -28.5763 -28.4563 -28.2391 -28.1312
    17.3073  19.7864  20.1678  21.7140  21.9830  22.8499  24.2148  24.3616
    24.5311  24.9360  26.0437  31.8476

          k = 0.1001 0.2002 0.4004 (   939 PWs)   bands (ev):

   -62.3560 -62.2203 -28.9155 -28.7041 -28.6017 -28.3718 -28.3165 -28.1672
    18.2364  19.9039  20.6478  21.6172  21.9458  22.4112  23.9634  24.0854
    24.8611  25.3504  25.8285  29.5492

          k = 0.1001 0.2002 0.5005 (   941 PWs)   bands (ev):

   -62.3087 -62.2622 -28.8836 -28.8111 -28.5057 -28.4078 -28.2924 -28.2224
    19.0679  19.6558  21.0961  21.4437  22.0333  22.1890  23.8406  23.8741
    25.1831  25.5029  26.2157  27.6145

          k = 0.1001 0.3003 0.3003 (   947 PWs)   bands (ev):

   -62.3711 -62.2044 -28.9626 -28.7071 -28.6381 -28.3694 -28.2810 -28.1219
    17.9451  19.7753  20.7708  21.4131  21.9821  22.2324  24.2337  24.4451
    24.8633  24.9939  26.1728  31.5313

          k = 0.1001 0.3003 0.4004 (   943 PWs)   bands (ev):

   -62.3358 -62.2301 -28.9905 -28.8291 -28.5690 -28.3395 -28.2902 -28.1351
    18.5565  19.6369  21.2547  21.3353  21.8593  22.1769  24.1190  24.3943
    25.0521  25.6783  26.0945  29.8270

          k = 0.1001 0.3003 0.5005 (   939 PWs)   bands (ev):

   -62.2982 -62.2619 -28.9790 -28.9239 -28.4903 -28.4113 -28.2225 -28.1697
    19.0231  19.3739  21.2437  21.3581  22.0725  22.2962  24.2105  24.3230
    25.3834  25.8007  26.5777  27.9727

          k = 0.1001 0.4004 0.4004 (   943 PWs)   bands (ev):

   -62.3116 -62.2445 -29.0415 -28.9399 -28.5211 -28.3734 -28.2221 -28.1252
    18.7443  19.3205  21.0081  21.3530  22.2075  22.8426  24.2724  24.6327
    24.9898  26.1497  26.2978  29.2861

          k = 0.1001 0.4004 0.5005 (   941 PWs)   bands (ev):

   -62.2866 -62.2636 -29.0530 -29.0183 -28.4682 -28.4171 -28.1704 -28.1375
    18.8740  19.0543  20.9365  21.0559  22.9259  23.2662  24.4956  24.6447
    25.2919  25.8769  27.0101  28.0652

          k = 0.1001 0.5005 0.5005 (   954 PWs)   bands (ev):

   -62.2763 -62.2683 -29.0881 -29.0765 -28.4463 -28.4288 -28.1385 -28.1276
    18.7879  18.8441  20.7809  20.8233  23.8678  24.2158  24.6920  24.7646
    25.0742  25.5581  27.4068  27.7984

          k = 0.2002 0.2002 0.2002 (   943 PWs)   bands (ev):

   -62.4145 -62.1734 -28.8271 -28.8271 -28.5414 -28.4569 -28.1626 -28.1626
    17.0215  19.8841  19.8841  21.7618  21.7618  22.7342  24.3719  24.6084
    24.6084  25.5170  25.5170  34.9202

          k = 0.2002 0.2002 0.3003 (   939 PWs)   bands (ev):

   -62.3826 -62.1950 -28.8877 -28.7506 -28.6561 -28.3767 -28.2329 -28.1569
    17.8022  20.1752  20.2705  21.5752  21.5782  22.1149  24.4149  24.8518
    24.8972  25.0224  25.6850  32.5876

          k = 0.2002 0.2002 0.4004 (   937 PWs)   bands (ev):

   -62.3437 -62.2245 -28.9172 -28.7671 -28.6532 -28.3246 -28.3052 -28.1698
    18.6423  20.2917  20.5175  21.3716  21.6377  21.9396  24.2059  24.3981
    25.0776  25.6239  25.7923  30.2611

          k = 0.2002 0.2002 0.5005 (   937 PWs)   bands (ev):

   -62.3017 -62.2610 -28.9072 -28.8552 -28.5436 -28.4310 -28.2455 -28.1996
    19.3530  19.9028  20.8529  21.1378  21.8854  22.0171  24.0715  24.1158
    25.2549  25.4400  26.8271  28.2987

          k = 0.2002 0.3003 0.3003 (   944 PWs)   bands (ev):

   -62.3568 -62.2105 -28.9087 -28.7552 -28.7329 -28.3064 -28.2679 -28.1713
    18.4691  20.2238  20.8068  21.2785  21.4819  21.5483  24.5832  24.7505
    24.8387  25.6298  25.7446  32.6015

          k = 0.2002 0.3003 0.4004 (   953 PWs)   bands (ev):

   -62.3255 -62.2325 -28.9452 -28.8492 -28.6513 -28.3455 -28.2509 -28.1753
    19.0645  20.0649  21.0310  21.1149  21.6157  21.6197  24.5000  24.5158
    25.0264  25.6056  26.5450  30.8543

          k = 0.2002 0.3003 0.5005 (   945 PWs)   bands (ev):

   -62.2920 -62.2601 -28.9518 -28.9189 -28.5491 -28.4432 -28.2110 -28.1865
    19.4587  19.7704  20.9979  21.0264  21.9205  21.9547  24.4054  24.4262
    25.2339  25.4433  27.5631  28.9984

          k = 0.2002 0.4004 0.4004 (   955 PWs)   bands (ev):

   -62.3037 -62.2447 -28.9831 -28.9269 -28.5993 -28.3870 -28.2138 -28.1795
    19.2667  19.7308  20.9112  21.0906  21.9882  22.0834  24.5543  24.7132
    25.0010  25.5844  27.3419  30.5946

          k = 0.2002 0.4004 0.5005 (   957 PWs)   bands (ev):

   -62.2815 -62.2612 -28.9997 -28.9809 -28.5256 -28.4501 -28.1926 -28.1835
    19.3457  19.4804  20.8394  20.9113  22.5103  22.5619  24.6452  24.7101
    25.1501  25.4008  28.2604  29.4347

          k = 0.2002 0.5005 0.5005 (   954 PWs)   bands (ev):

   -62.2718 -62.2649 -29.0270 -29.0207 -28.4918 -28.4644 -28.1861 -28.1844
    19.2524  19.2906  20.7158  20.7476  23.1376  23.1902  24.7961  24.8303
    25.0884  25.2272  28.8832  29.3661

          k = 0.3003 0.3003 0.3003 (   952 PWs)   bands (ev):

   -62.3355 -62.2216 -28.8243 -28.8243 -28.8193 -28.2571 -28.2499 -28.2499
    19.1783  20.8404  20.8404  20.9154  21.1139  21.1139  24.7865  24.7865
    25.1193  25.1193  26.5955  33.9955

          k = 0.3003 0.3003 0.4004 (   953 PWs)   bands (ev):

   -62.3099 -62.2376 -28.8922 -28.8801 -28.7165 -28.3521 -28.2317 -28.2268
    19.7133  20.4014  20.8543  20.9731  21.1767  21.4561  24.7117  24.7849
    24.9976  25.2797  27.5027  31.9454

          k = 0.3003 0.3003 0.5005 (   952 PWs)   bands (ev):

   -62.2833 -62.2585 -28.9252 -28.9198 -28.5952 -28.4703 -28.2182 -28.2149
    19.8967  20.0714  20.8585  20.8881  21.6067  21.7733  24.6448  24.6450
    25.1637  25.2684  28.5936  30.0604

          k = 0.3003 0.4004 0.4004 (   951 PWs)   bands (ev):

   -62.2919 -62.2459 -28.9115 -28.8914 -28.6909 -28.3924 -28.2656 -28.2227
    20.0238  20.1639  20.8089  20.9739  21.3613  21.6564  24.8419  24.8548
    25.0075  25.2156  28.4843  32.1562

          k = 0.3003 0.4004 0.5005 (   956 PWs)   bands (ev):

   -62.2740 -62.2582 -28.9286 -28.9203 -28.5944 -28.4851 -28.2557 -28.2354
    19.9764  19.9909  20.7696  20.8479  21.8493  21.9713  24.8341  24.8503
    25.1144  25.1941  29.5774  30.9044

          k = 0.3003 0.5005 0.5005 (   959 PWs)   bands (ev):

   -62.2660 -62.2605 -28.9358 -28.9311 -28.5524 -28.5078 -28.2752 -28.2623
    19.8935  19.9033  20.6624  20.7064  22.2884  22.3282  24.9312  24.9442
    25.1061  25.1436  30.4787  31.0937

          k = 0.4004 0.4004 0.4004 (   949 PWs)   bands (ev):

   -62.2786 -62.2495 -28.8968 -28.7745 -28.7745 -28.3773 -28.3773 -28.2519
    20.2426  20.7613  20.7613  20.8645  21.2966  21.2966  25.0025  25.0025
    25.0429  25.0429  29.6359  33.8679

          k = 0.4004 0.4004 0.5005 (   954 PWs)   bands (ev):

   -62.2663 -62.2562 -28.8760 -28.8372 -28.6424 -28.5064 -28.3417 -28.2954
    20.2546  20.4224  20.8170  20.9991  21.4279  21.5786  24.9898  24.9900
    25.1055  25.1271  30.8631  32.2954

          k = 0.4004 0.5005 0.5005 (   950 PWs)   bands (ev):

   -62.2601 -62.2566 -28.8341 -28.8088 -28.6139 -28.5377 -28.3925 -28.3589
    20.3787  20.5435  20.6811  20.8549  21.5931  21.6446  25.0555  25.0574
    25.1212  25.1286  32.0837  32.9392

          k = 0.5005 0.5005 0.5005 (   946 PWs)   bands (ev):

   -62.2561 -62.2548 -28.7384 -28.6704 -28.6704 -28.5280 -28.5280 -28.4589
    20.6227  20.8278  20.8278  21.1424  21.1424  21.2295  25.1293  25.1293
    25.1298  25.1298  33.6105  34.8736

     the Fermi energy is    24.8050 ev

!    total energy              =    -653.72697230 Ry
     total all-electron energy =     -5086.378391 Ry
     estimated scf accuracy    <          3.4E-10 Ry
     smearing contrib. (-TS)   =      -0.01349246 Ry
     internal energy E=F+TS    =    -653.71347984 Ry

     The total energy is F=E-TS. E is the sum of the following terms:
     one-electron contribution =    -170.39376383 Ry
     hartree contribution      =     112.41775301 Ry
     xc contribution           =     -55.09858844 Ry
     ewald contribution        =    -379.19224444 Ry
     one-center paw contrib.   =    -161.44663613 Ry

     convergence has been achieved in  10 iterations

     Forces acting on atoms (cartesian axes, Ry/au):

     atom    1 type  1   force =     0.00000000    0.00000000    0.00000000
     atom    2 type  1   force =     0.00000000    0.00000000    0.00000000

     Total force =     0.000000     Total SCF correction =     0.000000


     Computing stress (Cartesian axis) and pressure

          total   stress  (Ry/bohr**3)                   (kbar)     P=      571.87
   0.00388746   0.00000000   0.00000000          571.87        0.00        0.00
   0.00000000   0.00388746   0.00000000            0.00      571.87        0.00
   0.00000000   0.00000000   0.00388746            0.00        0.00      571.87

     Energy error            =      1.4E-02 Ry
     Gradient error          =      0.0E+00 Ry/Bohr
     Cell gradient error     =      5.7E+02 kbar

     number of scf cycles    =   2
     number of bfgs steps    =   1

     enthalpy           old  =    -653.7125406251 Ry
     enthalpy           new  =    -653.7269722995 Ry

     CASE: enthalpy          _new < enthalpy          _old

     new trust radius        =       0.1026355110 bohr
ibrav =      1
 celldm(1) =      5.14533686
Input lattice vectors:
     0.95101687     0.00000000     0.00000000
     0.00000000     0.95101687     0.00000000
     0.00000000     0.00000000     0.95101687
New lattice vectors in INITIAL alat:
     0.95101687     0.00000000     0.00000000
     0.00000000     0.95101687     0.00000000
     0.00000000     0.00000000     0.95101687
New lattice vectors in NEW alat (for information only):
     1.00000000     0.00000000     0.00000000
     0.00000000     1.00000000     0.00000000
     0.00000000     0.00000000     1.00000000
Discrepancy in bohr =     0.000000    0.000000    0.000000
     new conv_thr            =            1.0E-10 Ry

     new unit-cell volume =    136.22018 a.u.^3 (    20.18575 Ang^3 )
     density =      9.18795 g/cm^3

CELL_PARAMETERS (alat=  5.41035287)
   0.951016872   0.000000000   0.000000000
   0.000000000   0.951016872   0.000000000
   0.000000000   0.000000000   0.951016872

ATOMIC_POSITIONS (crystal)
Fe1              0.0000000000        0.0000000000        0.0000000000
Fe1              0.5000000000        0.5000000000        0.5000000000



     Writing config-only to output data dir ./temp/fe-nm.save/ :
     XML data file
     NEW-OLD atomic charge density approx. for the potential

     Check: negative core charge=   -0.000005

     total cpu time spent up to now is       35.3 secs

     Self-consistent Calculation

     iteration #  1     ecut=    50.00 Ry     beta= 0.70
     Davidson diagonalization with overlap
     ethr =  1.00E-06,  avg # of iterations =  6.9

     total cpu time spent up to now is       37.8 secs

     total energy              =    -653.75269306 Ry
     estimated scf accuracy    <       0.00314352 Ry

     iteration #  2     ecut=    50.00 Ry     beta= 0.70
     Davidson diagonalization with overlap
     ethr =  9.82E-06,  avg # of iterations =  3.0

     total cpu time spent up to now is       39.4 secs

     total energy              =    -653.75423973 Ry
     estimated scf accuracy    <       0.01141099 Ry

     iteration #  3     ecut=    50.00 Ry     beta= 0.70
     Davidson diagonalization with overlap
     ethr =  9.82E-06,  avg # of iterations =  3.1

     total cpu time spent up to now is       40.7 secs

     total energy              =    -653.75579358 Ry
     estimated scf accuracy    <       0.00077462 Ry

     iteration #  4     ecut=    50.00 Ry     beta= 0.70
     Davidson diagonalization with overlap
     ethr =  2.42E-06,  avg # of iterations =  1.6

     total cpu time spent up to now is       41.8 secs

     total energy              =    -653.75619515 Ry
     estimated scf accuracy    <       0.00138115 Ry

     iteration #  5     ecut=    50.00 Ry     beta= 0.70
     Davidson diagonalization with overlap
     ethr =  2.42E-06,  avg # of iterations =  2.0

     total cpu time spent up to now is       42.9 secs

     total energy              =    -653.75636864 Ry
     estimated scf accuracy    <       0.00000392 Ry

     iteration #  6     ecut=    50.00 Ry     beta= 0.70
     Davidson diagonalization with overlap
     ethr =  1.23E-08,  avg # of iterations =  3.1

     total cpu time spent up to now is       44.4 secs

     total energy              =    -653.75637570 Ry
     estimated scf accuracy    <       0.00000833 Ry

     iteration #  7     ecut=    50.00 Ry     beta= 0.70
     Davidson diagonalization with overlap
     ethr =  1.23E-08,  avg # of iterations =  2.8

     total cpu time spent up to now is       45.7 secs

     total energy              =    -653.75637720 Ry
     estimated scf accuracy    <       0.00000009 Ry

     iteration #  8     ecut=    50.00 Ry     beta= 0.70
     Davidson diagonalization with overlap
     ethr =  2.74E-10,  avg # of iterations =  2.9

     total cpu time spent up to now is       47.1 secs

     total energy              =    -653.75637721 Ry
     estimated scf accuracy    <       0.00000002 Ry

     iteration #  9     ecut=    50.00 Ry     beta= 0.70
     Davidson diagonalization with overlap
     ethr =  5.97E-11,  avg # of iterations =  2.0

     total cpu time spent up to now is       48.4 secs

     total energy              =    -653.75637721 Ry
     estimated scf accuracy    <          6.9E-09 Ry

     iteration # 10     ecut=    50.00 Ry     beta= 0.70
     Davidson diagonalization with overlap
     ethr =  2.16E-11,  avg # of iterations =  2.0

     total cpu time spent up to now is       49.7 secs

     total energy              =    -653.75637721 Ry
     estimated scf accuracy    <          1.2E-10 Ry

     iteration # 11     ecut=    50.00 Ry     beta= 0.70
     Davidson diagonalization with overlap
     ethr =  3.81E-13,  avg # of iterations =  3.6

     total cpu time spent up to now is       51.1 secs

     End of self-consistent calculation

          k = 0.0000 0.0000 0.0000 (   949 PWs)   bands (ev):

   -65.9834 -65.7498 -32.2470 -32.2470 -32.2470 -31.7917 -31.7917 -31.7917
    11.7802  16.0519  16.0519  19.1545  19.1545  19.1545  21.0071  21.0071
    22.1922  22.1922  22.1922  31.7666

          k = 0.0000 0.0000 0.0956 (   944 PWs)   bands (ev):

   -65.9780 -65.7537 -32.2465 -32.2372 -32.2372 -31.8098 -31.8003 -31.8003
    11.9699  16.1423  16.1440  19.1496  19.1496  19.2122  20.9004  21.0480
    21.9957  21.9957  22.1264  30.6782

          k = 0.0000 0.0000 0.1912 (   952 PWs)   bands (ev):

   -65.9623 -65.7655 -32.2430 -32.2089 -32.2089 -31.8606 -31.8257 -31.8257
    12.5231  16.3746  16.4126  19.1451  19.1451  19.3806  20.5886  21.1644
    21.5024  21.5024  21.9354  28.4950

          k = 0.0000 0.0000 0.2868 (   944 PWs)   bands (ev):

   -65.9380 -65.7844 -32.2313 -32.1645 -32.1645 -31.9341 -31.8662 -31.8662
    13.3902  16.6379  16.8450  19.1743  19.1743  19.6486  20.0996  20.8955
    20.8955  21.3429  21.6378  26.2179

          k = 0.0000 0.0000 0.3824 (   940 PWs)   bands (ev):

   -65.9075 -65.8101 -32.2052 -32.1083 -32.1083 -32.0169 -31.9189 -31.9189
    14.4707  16.7287  17.4115  19.2778  19.2778  19.4784  19.9987  20.3150
    20.3150  21.2607  21.5945  24.2425

          k = 0.0000 0.0000 0.4780 (   936 PWs)   bands (ev):

   -65.8740 -65.8406 -32.1600 -32.0956 -32.0450 -32.0450 -31.9801 -31.9801
    15.5738  16.4025  18.0736  18.7822  19.4913  19.4913  19.8366  19.8366
    20.4055  20.8382  22.0104  22.8209

          k = 0.0000 0.0956 0.0956 (   941 PWs)   bands (ev):

   -65.9727 -65.7574 -32.2623 -32.2278 -32.2118 -31.8443 -31.8086 -31.7918
    12.1565  16.2275  16.2370  19.0334  19.1336  19.3801  20.8860  21.0167
    21.6692  21.8015  22.2192  30.7570

          k = 0.0000 0.0956 0.1912 (   947 PWs)   bands (ev):

   -65.9576 -65.7686 -32.2722 -32.2005 -32.1720 -31.9068 -31.8329 -31.8031
    12.6998  16.4550  16.4994  18.9420  19.1005  19.6326  20.6484  21.1148
    21.1191  21.3237  22.1483  28.7392

          k = 0.0000 0.0956 0.2868 (   941 PWs)   bands (ev):

   -65.9341 -65.7868 -32.2696 -32.1578 -32.1218 -31.9859 -31.8715 -31.8342
    13.5481  16.7142  16.9067  18.9159  19.0709  19.9509  20.2554  20.5113
    20.7635  21.3005  21.9166  26.4374

          k = 0.0000 0.0956 0.3824 (   939 PWs)   bands (ev):

   -65.9047 -65.8113 -32.2497 -32.1037 -32.0701 -32.0633 -31.9220 -31.8808
    14.5956  16.7906  17.4348  18.9828  18.9847  19.8707  19.9482  20.2846
    20.3272  21.5600  21.5755  24.4081

          k = 0.0000 0.0956 0.4780 (   940 PWs)   bands (ev):

   -65.8725 -65.8406 -32.2091 -32.1477 -32.0429 -32.0004 -31.9807 -31.9378
    15.6548  16.4545  18.0344  18.6171  19.1693  19.4907  19.7855  19.9623
    20.7433  21.1705  22.0062  22.8964

          k = 0.0000 0.1912 0.1912 (   945 PWs)   bands (ev):

   -65.9440 -65.7781 -32.3034 -32.1762 -32.1168 -31.9845 -31.8538 -31.7921
    13.2104  16.6184  16.7870  18.7172  19.0090  20.0107  20.5052  20.7121
    20.9085  21.0516  22.2922  28.7331

          k = 0.0000 0.1912 0.2868 (   938 PWs)   bands (ev):

   -65.9229 -65.7937 -32.3200 -32.1384 -32.0729 -32.0565 -31.8873 -31.8030
    13.9913  16.7881  17.2018  18.5770  18.9277  19.8861  20.4258  20.4919
    20.5481  21.1897  22.2409  26.8491

          k = 0.0000 0.1912 0.3824 (   936 PWs)   bands (ev):

   -65.8968 -65.8149 -32.3162 -32.1599 -32.0905 -31.9942 -31.9312 -31.8330
    14.9201  16.7934  17.6762  18.5511  18.8295  19.3446  20.2619  20.3445
    20.8598  21.4582  22.0249  24.7678

          k = 0.0000 0.1912 0.4780 (   944 PWs)   bands (ev):

   -65.8685 -65.8404 -32.2878 -32.2344 -32.0370 -31.9824 -31.9333 -31.8780
    15.8112  16.4724  18.1630  18.5822  18.6644  18.9298  20.2351  20.2658
    21.2917  21.6930  21.9846  23.0738

          k = 0.0000 0.2868 0.2868 (   943 PWs)   bands (ev):

   -65.9059 -65.8053 -32.3569 -32.1656 -32.1082 -31.9907 -31.9127 -31.7925
    14.6278  16.7569  17.6920  18.3238  18.9163  19.2827  20.3079  20.7452
    20.9147  21.1202  22.3888  26.5145

          k = 0.0000 0.2868 0.3824 (   945 PWs)   bands (ev):

   -65.8851 -65.8212 -32.3719 -32.2510 -32.0703 -31.9462 -31.9289 -31.8028
    15.3050  16.5953  18.1985  18.2372  18.7797  19.0390  20.3384  20.7236
    21.3054  21.3827  22.3441  24.9343

          k = 0.0000 0.2868 0.4780 (   944 PWs)   bands (ev):

   -65.8626 -65.8406 -32.3595 -32.3181 -32.0282 -31.9857 -31.8746 -31.8313
    15.8761  16.3003  18.2268  18.4218  18.7235  19.0323  20.5213  20.6760
    21.8008  21.9097  22.1347  23.2007

          k = 0.0000 0.3824 0.3824 (   946 PWs)   bands (ev):

   -65.8708 -65.8303 -32.4059 -32.3295 -32.0452 -31.9665 -31.8732 -31.7929
    15.6129  16.3230  17.9795  18.3319  18.9333  19.6346  20.5256  20.9180
    21.2082  21.8427  22.4779  24.3374

          k = 0.0000 0.3824 0.4780 (   949 PWs)   bands (ev):

   -65.8560 -65.8421 -32.4113 -32.3852 -32.0179 -31.9909 -31.8303 -31.8027
    15.8405  16.0646  17.9217  18.0401  19.5780  19.9580  20.7616  20.9318
    21.6999  22.2010  22.4235  23.0179

          k = 0.0000 0.4780 0.4780 (   948 PWs)   bands (ev):

   -65.8499 -65.8451 -32.4349 -32.4260 -32.0075 -31.9983 -31.8027 -31.7932
    15.8206  15.8908  17.7820  17.8214  20.4809  20.9107  20.9298  21.2134
    21.2719  22.3072  22.4534  22.5313

          k = 0.0956 0.0956 0.0956 (   949 PWs)   bands (ev):

   -65.9677 -65.7610 -32.2522 -32.2522 -32.1794 -31.8763 -31.8007 -31.8007
    12.3399  16.3197  16.3197  19.0129  19.0129  19.5493  20.9350  20.9350
    21.2379  22.0247  22.0247  31.1121

          k = 0.0956 0.0956 0.1912 (   943 PWs)   bands (ev):

   -65.9530 -65.7716 -32.2732 -32.2230 -32.1334 -31.9408 -31.8270 -31.8045
    12.8755  16.5590  16.5619  18.8781  18.9595  19.8481  20.6370  20.7035
    21.0699  21.5435  22.0742  28.9978

          k = 0.0956 0.0956 0.2868 (   934 PWs)   bands (ev):

   -65.9303 -65.7889 -32.2804 -32.1772 -32.0811 -32.0206 -31.8689 -31.8265
    13.7068  16.8193  16.9444  18.8278  18.8829  20.0508  20.2086  20.3643
    20.9654  21.2648  21.9313  26.6741

          k = 0.0956 0.0956 0.3824 (   941 PWs)   bands (ev):

   -65.9020 -65.8125 -32.2686 -32.1191 -32.1035 -32.0246 -31.9235 -31.8636
    14.7252  16.8799  17.4319  18.7499  18.8955  19.5998  20.0288  20.4365
    20.6094  21.5357  21.6588  24.6094

          k = 0.0956 0.0956 0.4780 (   938 PWs)   bands (ev):

   -65.8711 -65.8404 -32.2345 -32.1779 -32.0538 -31.9867 -31.9669 -31.9118
    15.7463  16.5268  17.9670  18.4495  19.0768  19.3103  19.8941  20.0537
    20.9921  21.3313  22.0387  23.0282

          k = 0.0956 0.1912 0.1912 (   941 PWs)   bands (ev):

   -65.9398 -65.7806 -32.2925 -32.2123 -32.0792 -32.0112 -31.8441 -31.8018
    13.3815  16.7266  16.8439  18.6765  18.8372  20.0068  20.2404  20.7658
    21.0163  21.2945  22.0991  29.0711

          k = 0.0956 0.1912 0.2868 (   942 PWs)   bands (ev):

   -65.9195 -65.7956 -32.3122 -32.1716 -32.0940 -32.0229 -31.8813 -31.8100
    14.1528  16.9160  17.2227  18.5273  18.7391  19.4530  20.5955  20.6918
    20.8359  21.1707  22.0716  27.1428

          k = 0.0956 0.1912 0.3824 (   939 PWs)   bands (ev):

   -65.8944 -65.8158 -32.3140 -32.1755 -32.1167 -31.9673 -31.9317 -31.8333
    15.0640  16.9282  17.6230  18.4505  18.6917  19.0956  20.3900  20.4742
    21.1041  21.4892  21.8942  25.0541

          k = 0.0956 0.1912 0.4780 (   941 PWs)   bands (ev):

   -65.8671 -65.8402 -32.2917 -32.2443 -32.0545 -31.9910 -31.9152 -31.8694
    15.9327  16.5884  18.0084  18.3052  18.7598  18.9036  20.2830  20.3056
    21.3658  21.6259  22.1824  23.3534

          k = 0.0956 0.2868 0.2868 (   947 PWs)   bands (ev):

   -65.9031 -65.8066 -32.3450 -32.1775 -32.1402 -31.9657 -31.9088 -31.8033
    14.7921  16.8893  17.7033  18.2795  18.7049  18.9462  20.5932  20.7745
    21.1149  21.2073  22.1759  26.8953

          k = 0.0956 0.2868 0.3824 (   943 PWs)   bands (ev):

   -65.8829 -65.8217 -32.3613 -32.2555 -32.0956 -31.9473 -31.9137 -31.8117
    15.4652  16.7283  18.1491  18.1619  18.6361  18.8180  20.5027  20.7320
    21.2589  21.7670  22.1097  25.3413

          k = 0.0956 0.2868 0.4780 (   939 PWs)   bands (ev):

   -65.8613 -65.8403 -32.3526 -32.3164 -32.0449 -31.9939 -31.8691 -31.8344
    16.0211  16.4337  18.1373  18.2216  18.7575  18.9109  20.5793  20.6706
    21.5198  21.8647  22.5026  23.6891

          k = 0.0956 0.3824 0.3824 (   943 PWs)   bands (ev):

   -65.8692 -65.8303 -32.3930 -32.3263 -32.0651 -31.9698 -31.8686 -31.8048
    15.7733  16.4533  17.9447  18.2258  18.8674  19.3117  20.6277  20.9184
    21.2120  22.1531  22.2805  24.8964

          k = 0.0956 0.3824 0.4780 (   941 PWs)   bands (ev):

   -65.8549 -65.8416 -32.3994 -32.3766 -32.0312 -31.9984 -31.8345 -31.8127
    15.9884  16.1994  17.8849  17.9815  19.4486  19.6898  20.8070  20.9261
    21.4457  21.9252  22.8799  23.8047

          k = 0.0956 0.4780 0.4780 (   954 PWs)   bands (ev):

   -65.8491 -65.8445 -32.4214 -32.4136 -32.0175 -32.0061 -31.8130 -31.8056
    15.9623  16.0277  17.7554  17.7901  20.2331  20.4922  20.9620  21.0187
    21.2758  21.6636  23.2319  23.5858

          k = 0.1912 0.1912 0.1912 (   943 PWs)   bands (ev):

   -65.9280 -65.7883 -32.2608 -32.2608 -32.0724 -32.0242 -31.8305 -31.8305
    13.8718  17.0065  17.0065  18.5666  18.5666  19.3514  20.6954  20.9126
    20.9126  21.6425  21.6425  29.9587

          k = 0.1912 0.1912 0.2868 (   939 PWs)   bands (ev):

   -65.9098 -65.8011 -32.2978 -32.2112 -32.1457 -31.9716 -31.8762 -31.8266
    14.6078  17.2508  17.2843  18.4065  18.4162  18.8404  20.7559  21.1028
    21.1364  21.2276  21.7771  27.8033

          k = 0.1912 0.1912 0.3824 (   937 PWs)   bands (ev):

   -65.8874 -65.8184 -32.3150 -32.2164 -32.1482 -31.9356 -31.9247 -31.8349
    15.4479  17.2273  17.5362  18.2451  18.4341  18.6998  20.5863  20.7311
    21.2782  21.7227  21.8553  25.6875

          k = 0.1912 0.1912 0.4780 (   937 PWs)   bands (ev):

   -65.8632 -65.8397 -32.3071 -32.2730 -32.0773 -32.0044 -31.8853 -31.8548
    16.2139  16.8117  17.8141  18.0506  18.6184  18.7413  20.4740  20.5052
    21.4172  21.5679  22.7051  23.9532

          k = 0.1912 0.2868 0.2868 (   944 PWs)   bands (ev):

   -65.8951 -65.8104 -32.3102 -32.2090 -32.1990 -31.9257 -31.8987 -31.8352
    15.2544  17.2577  17.7312  18.1658  18.3138  18.3723  20.8869  21.0162
    21.0931  21.7306  21.8182  27.8460

          k = 0.1912 0.2868 0.3824 (   953 PWs)   bands (ev):

   -65.8772 -65.8234 -32.3321 -32.2689 -32.1462 -31.9488 -31.8889 -31.8375
    15.9079  17.0853  17.9231  18.0271  18.3779  18.4089  20.8136  20.8311
    21.2377  21.7065  22.4801  26.2463

          k = 0.1912 0.2868 0.4780 (   945 PWs)   bands (ev):

   -65.8580 -65.8395 -32.3353 -32.3135 -32.0803 -32.0120 -31.8622 -31.8454
    16.4046  16.7748  17.9136  17.9474  18.5979  18.6512  20.7393  20.7578
    21.3990  21.5691  23.3362  24.5815

          k = 0.1912 0.3824 0.3824 (   955 PWs)   bands (ev):

   -65.8648 -65.8307 -32.3553 -32.3183 -32.1127 -31.9761 -31.8638 -31.8395
    16.2263  16.7996  17.8579  17.9984  18.6749  18.6984  20.8565  20.9849
    21.2194  21.6876  23.1527  26.0552

          k = 0.1912 0.3824 0.4780 (   957 PWs)   bands (ev):

   -65.8521 -65.8404 -32.3652 -32.3527 -32.0654 -32.0170 -31.8490 -31.8421
    16.3955  16.5631  17.7951  17.8507  19.0865  19.0951  20.9293  20.9814
    21.3340  21.5355  23.9514  25.0044

          k = 0.1912 0.4780 0.4780 (   954 PWs)   bands (ev):

   -65.8467 -65.8427 -32.3821 -32.3779 -32.0443 -32.0268 -31.8436 -31.8421
    16.3581  16.4061  17.6932  17.7179  19.6002  19.6254  21.0476  21.0747
    21.2869  21.3965  24.5258  24.9729

          k = 0.2868 0.2868 0.2868 (   952 PWs)   bands (ev):

   -65.8830 -65.8171 -32.2556 -32.2556 -32.2502 -31.8934 -31.8858 -31.8858
    15.9044  17.7569  17.7569  17.8350  18.0237  18.0237  21.0493  21.0493
    21.3140  21.3140  22.5197  29.1071

          k = 0.2868 0.2868 0.3824 (   953 PWs)   bands (ev):

   -65.8685 -65.8266 -32.2977 -32.2889 -32.1863 -31.9516 -31.8736 -31.8729
    16.4973  17.3780  17.7694  17.8974  18.0282  18.2529  20.9880  21.0447
    21.2147  21.4405  23.2827  27.2307

          k = 0.2868 0.2868 0.4780 (   952 PWs)   bands (ev):

   -65.8532 -65.8388 -32.3180 -32.3141 -32.1081 -32.0277 -31.8653 -31.8642
    16.8235  17.0585  17.7792  17.8145  18.3294  18.4860  20.9328  20.9341
    21.3435  21.4275  24.2232  25.5230

          k = 0.2868 0.3824 0.3824 (   951 PWs)   bands (ev):

   -65.8583 -65.8316 -32.3088 -32.2963 -32.1692 -31.9773 -31.8947 -31.8693
    16.8876  17.1814  17.7617  17.8697  18.1180  18.3927  21.0896  21.1004
    21.2232  21.3889  24.1268  27.4609

          k = 0.2868 0.3824 0.4780 (   956 PWs)   bands (ev):

   -65.8480 -65.8389 -32.3194 -32.3141 -32.1071 -32.0370 -31.8883 -31.8762
    16.9520  17.0121  17.7188  17.7715  18.5036  18.6318  21.0827  21.0960
    21.3061  21.3697  25.0977  26.3087

          k = 0.2868 0.4780 0.4780 (   959 PWs)   bands (ev):

   -65.8436 -65.8404 -32.3234 -32.3204 -32.0806 -32.0519 -31.9000 -31.8923
    16.9146  16.9221  17.6332  17.6641  18.8752  18.9215  21.1586  21.1685
    21.3005  21.3305  25.9366  26.5207

          k = 0.3824 0.3824 0.3824 (   949 PWs)   bands (ev):

   -65.8508 -65.8340 -32.2993 -32.2212 -32.2212 -31.9663 -31.9663 -31.8872
    17.2655  17.5649  17.7055  17.7055  18.0977  18.0977  21.2187  21.2187
    21.2504  21.2504  25.1339  29.0254

          k = 0.3824 0.3824 0.4780 (   954 PWs)   bands (ev):

   -65.8439 -65.8380 -32.2854 -32.2606 -32.1363 -32.0490 -31.9431 -31.9140
    17.2602  17.3769  17.7316  17.8644  18.1476  18.3076  21.2081  21.2082
    21.2992  21.3167  26.2432  27.5695

          k = 0.3824 0.4780 0.4780 (   950 PWs)   bands (ev):

   -65.8404 -65.8384 -32.2582 -32.2419 -32.1179 -32.0691 -31.9751 -31.9540
    17.3550  17.4683  17.6291  17.7481  18.3054  18.3632  21.2599  21.2608
    21.3121  21.3183  27.3743  28.1954

          k = 0.4780 0.4780 0.4780 (   946 PWs)   bands (ev):

   -65.8383 -65.8375 -32.1967 -32.1531 -32.1531 -32.0617 -32.0617 -32.0178
    17.5615  17.7268  17.7268  17.9651  17.9651  18.0135  21.3183  21.3183
    21.3194  21.3194  28.7781  29.9759

     the Fermi energy is    21.0561 ev

!    total energy              =    -653.75637721 Ry
     total all-electron energy =     -5086.407796 Ry
     estimated scf accuracy    <          3.1E-12 Ry
     smearing contrib. (-TS)   =      -0.01663756 Ry
     internal energy E=F+TS    =    -653.73973965 Ry

     The total energy is F=E-TS. E is the sum of the following terms:
     one-electron contribution =    -196.76915884 Ry
     hartree contribution      =     121.40098256 Ry
     xc contribution           =     -54.79093979 Ry
     ewald contribution        =    -362.13129990 Ry
     one-center paw contrib.   =    -161.44932369 Ry

     convergence has been achieved in  11 iterations

     Forces acting on atoms (cartesian axes, Ry/au):

     atom    1 type  1   force =     0.00000000    0.00000000    0.00000000
     atom    2 type  1   force =     0.00000000    0.00000000    0.00000000

     Total force =     0.000000     Total SCF correction =     0.000000


     Computing stress (Cartesian axis) and pressure

          total   stress  (Ry/bohr**3)                   (kbar)     P=      -26.35
  -0.00017913   0.00000000   0.00000000          -26.35        0.00        0.00
   0.00000000  -0.00017913   0.00000000            0.00      -26.35        0.00
   0.00000000   0.00000000  -0.00017913            0.00        0.00      -26.35

     Energy error            =      2.9E-02 Ry
     Gradient error          =      0.0E+00 Ry/Bohr
     Cell gradient error     =      2.6E+01 kbar

     number of scf cycles    =   3
     number of bfgs steps    =   2

     enthalpy           old  =    -653.7269722995 Ry
     enthalpy           new  =    -653.7563772146 Ry

     CASE: enthalpy          _new < enthalpy          _old

     new trust radius        =       0.0050509423 bohr
ibrav =      1
 celldm(1) =      5.13420326
Input lattice vectors:
     0.94895904     0.00000000     0.00000000
     0.00000000     0.94895904     0.00000000
     0.00000000     0.00000000     0.94895904
New lattice vectors in INITIAL alat:
     0.94895904     0.00000000     0.00000000
     0.00000000     0.94895904     0.00000000
     0.00000000     0.00000000     0.94895904
New lattice vectors in NEW alat (for information only):
     1.00000000     0.00000000     0.00000000
     0.00000000     1.00000000     0.00000000
     0.00000000     0.00000000     1.00000000
Discrepancy in bohr =     0.000000    0.000000    0.000000
     new conv_thr            =            1.0E-10 Ry

     new unit-cell volume =    135.33782 a.u.^3 (    20.05500 Ang^3 )
     density =      9.24785 g/cm^3

CELL_PARAMETERS (alat=  5.41035287)
   0.948959040   0.000000000   0.000000000
   0.000000000   0.948959040   0.000000000
   0.000000000   0.000000000   0.948959040

ATOMIC_POSITIONS (crystal)
Fe1              0.0000000000        0.0000000000        0.0000000000
Fe1              0.5000000000        0.5000000000        0.5000000000



     Writing config-only to output data dir ./temp/fe-nm.save/ :
     XML data file
     NEW-OLD atomic charge density approx. for the potential

     Check: negative core charge=   -0.000005

     total cpu time spent up to now is       52.8 secs

     Self-consistent Calculation

     iteration #  1     ecut=    50.00 Ry     beta= 0.70
     Davidson diagonalization with overlap
     ethr =  1.00E-06,  avg # of iterations =  3.0

     Threshold (ethr) on eigenvalues was too large:
     Diagonalizing with lowered threshold

     Davidson diagonalization with overlap
     ethr =  4.31E-08,  avg # of iterations =  2.6

     total cpu time spent up to now is       55.6 secs

     total energy              =    -653.75645561 Ry
     estimated scf accuracy    <       0.00001796 Ry

     iteration #  2     ecut=    50.00 Ry     beta= 0.70
     Davidson diagonalization with overlap
     ethr =  5.61E-08,  avg # of iterations =  3.1

     total cpu time spent up to now is       57.2 secs

     total energy              =    -653.75645920 Ry
     estimated scf accuracy    <       0.00007100 Ry

     iteration #  3     ecut=    50.00 Ry     beta= 0.70
     Davidson diagonalization with overlap
     ethr =  5.61E-08,  avg # of iterations =  3.2

     total cpu time spent up to now is       58.6 secs

     total energy              =    -653.75646749 Ry
     estimated scf accuracy    <       0.00000417 Ry

     iteration #  4     ecut=    50.00 Ry     beta= 0.70
     Davidson diagonalization with overlap
     ethr =  1.30E-08,  avg # of iterations =  1.2

     total cpu time spent up to now is       59.7 secs

     total energy              =    -653.75646458 Ry
     estimated scf accuracy    <       0.00000356 Ry

     iteration #  5     ecut=    50.00 Ry     beta= 0.70
     Davidson diagonalization with overlap
     ethr =  1.11E-08,  avg # of iterations =  1.8

     total cpu time spent up to now is       60.8 secs

     total energy              =    -653.75646450 Ry
     estimated scf accuracy    <       0.00000006 Ry

     iteration #  6     ecut=    50.00 Ry     beta= 0.70
     Davidson diagonalization with overlap
     ethr =  1.80E-10,  avg # of iterations =  2.6

     total cpu time spent up to now is       62.5 secs

     total energy              =    -653.75646451 Ry
     estimated scf accuracy    <       0.00000001 Ry

     iteration #  7     ecut=    50.00 Ry     beta= 0.70
     Davidson diagonalization with overlap
     ethr =  3.77E-11,  avg # of iterations =  2.1

     total cpu time spent up to now is       63.7 secs

     total energy              =    -653.75646451 Ry
     estimated scf accuracy    <          1.4E-09 Ry

     iteration #  8     ecut=    50.00 Ry     beta= 0.70
     Davidson diagonalization with overlap
     ethr =  4.23E-12,  avg # of iterations =  2.0

     total cpu time spent up to now is       64.8 secs

     total energy              =    -653.75646451 Ry
     estimated scf accuracy    <          3.2E-10 Ry

     iteration #  9     ecut=    50.00 Ry     beta= 0.70
     Davidson diagonalization with overlap
     ethr =  9.98E-13,  avg # of iterations =  2.0

     total cpu time spent up to now is       66.0 secs

     End of self-consistent calculation

          k = 0.0000 0.0000 0.0000 (   949 PWs)   bands (ev):

   -65.8290 -65.5893 -32.0938 -32.0938 -32.0938 -31.6291 -31.6291 -31.6291
    11.9068  16.1696  16.1696  19.3019  19.3019  19.3019  21.1710  21.1710
    22.3685  22.3685  22.3685  31.9843

          k = 0.0000 0.0000 0.0958 (   944 PWs)   bands (ev):

   -65.8234 -65.5932 -32.0933 -32.0838 -32.0838 -31.6477 -31.6379 -31.6379
    12.0976  16.2610  16.2624  19.2969  19.2969  19.3601  21.0631  21.2125
    22.1700  22.1700  22.3020  30.8941

          k = 0.0000 0.0000 0.1916 (   952 PWs)   bands (ev):

   -65.8074 -65.6054 -32.0899 -32.0549 -32.0549 -31.6996 -31.6638 -31.6638
    12.6536  16.4967  16.5330  19.2924  19.2924  19.5300  20.7479  21.3303
    21.6718  21.6718  22.1091  28.7053

          k = 0.0000 0.0000 0.2874 (   944 PWs)   bands (ev):

   -65.7824 -65.6248 -32.0781 -32.0097 -32.0097 -31.7748 -31.7051 -31.7051
    13.5247  16.7648  16.9687  19.3220  19.3220  19.8005  20.2536  21.0591
    21.0591  21.5112  21.8084  26.4201

          k = 0.0000 0.0000 0.3832 (   940 PWs)   bands (ev):

   -65.7511 -65.6511 -32.0516 -31.9522 -31.9522 -31.8594 -31.7590 -31.7590
    14.6090  16.8613  17.5399  19.4264  19.4264  19.6260  20.1538  20.4731
    20.4731  21.4276  21.7659  24.4359

          k = 0.0000 0.0000 0.4790 (   936 PWs)   bands (ev):

   -65.7167 -65.6824 -32.0056 -31.9398 -31.8876 -31.8876 -31.8214 -31.8214
    15.7137  16.5401  18.2078  18.9230  19.6418  19.6418  19.9902  19.9902
    20.5643  21.0010  22.1868  23.0050

          k = 0.0000 0.0958 0.0958 (   941 PWs)   bands (ev):

   -65.8180 -65.5970 -32.1095 -32.0742 -32.0579 -31.6829 -31.6463 -31.6292
    12.2852  16.3467  16.3568  19.1796  19.2808  19.5295  21.0486  21.1808
    21.8402  21.9739  22.3958  30.9733

          k = 0.0000 0.0958 0.1916 (   947 PWs)   bands (ev):

   -65.8025 -65.6086 -32.1197 -32.0464 -32.0173 -31.7468 -31.6711 -31.6407
    12.8312  16.5770  16.6216  19.0873  19.2474  19.7846  20.8084  21.2802
    21.2848  21.4914  22.3242  28.9507

          k = 0.0000 0.0958 0.2874 (   941 PWs)   bands (ev):

   -65.7784 -65.6272 -32.1171 -32.0028 -31.9661 -31.8276 -31.7106 -31.6725
    13.6831  16.8413  17.0318  19.0610  19.2173  20.1057  20.4113  20.6712
    20.9258  21.4682  22.0901  26.6407

          k = 0.0000 0.0958 0.3832 (   939 PWs)   bands (ev):

   -65.7482 -65.6523 -32.0970 -31.9476 -31.9137 -31.9064 -31.7621 -31.7201
    14.7339  16.9233  17.5641  19.1285  19.1297  20.0234  20.1028  20.4425
    20.4854  21.7310  21.7455  24.6021

          k = 0.0000 0.0958 0.4790 (   940 PWs)   bands (ev):

   -65.7151 -65.6824 -32.0556 -31.9929 -31.8855 -31.8422 -31.8220 -31.7783
    15.7943  16.5919  18.1690  18.7574  19.3166  19.6411  19.9383  20.1170
    20.9053  21.3366  22.1825  23.0809

          k = 0.0000 0.1916 0.1916 (   945 PWs)   bands (ev):

   -65.7885 -65.6183 -32.1516 -32.0216 -31.9610 -31.8262 -31.6925 -31.6295
    13.3439  16.7416  16.9128  18.8603  19.1550  20.1662  20.6650  20.8731
    21.0724  21.2163  22.4694  28.9435

          k = 0.0000 0.1916 0.2874 (   938 PWs)   bands (ev):

   -65.7669 -65.6343 -32.1687 -31.9830 -31.9164 -31.8995 -31.7267 -31.6407
    14.1275  16.9144  17.3318  18.7187  19.0731  20.0400  20.5851  20.6518
    20.7075  21.3561  22.4176  27.0535

          k = 0.0000 0.1916 0.3832 (   936 PWs)   bands (ev):

   -65.7401 -65.6560 -32.1649 -32.0054 -31.9341 -31.8359 -31.7715 -31.6713
    15.0578  16.9237  17.8104  18.6926  18.9743  19.4934  20.4194  20.5022
    21.0231  21.6280  22.1994  24.9629

          k = 0.0000 0.1916 0.4790 (   944 PWs)   bands (ev):

   -65.7110 -65.6822 -32.1360 -32.0814 -31.8794 -31.8237 -31.7737 -31.7173
    15.9481  16.6066  18.3014  18.7246  18.8070  19.0749  20.3922  20.4232
    21.4591  21.8642  22.1605  23.2589

          k = 0.0000 0.2874 0.2874 (   943 PWs)   bands (ev):

   -65.7495 -65.6462 -32.2065 -32.0112 -31.9521 -31.8324 -31.7526 -31.6300
    14.7643  16.8836  17.8274  18.4631  19.0631  19.4309  20.4660  20.9072
    21.0786  21.2859  22.5670  26.7152

          k = 0.0000 0.2874 0.3832 (   945 PWs)   bands (ev):

   -65.7281 -65.6624 -32.2218 -32.0984 -31.9134 -31.7868 -31.7693 -31.6405
    15.4397  16.7229  18.3367  18.3780  18.9234  19.1888  20.4966  20.8855
    21.4734  21.5510  22.5218  25.1281

          k = 0.0000 0.2874 0.4790 (   944 PWs)   bands (ev):

   -65.7049 -65.6824 -32.2092 -32.1670 -31.8704 -31.8270 -31.7138 -31.6696
    16.0076  16.4293  18.3653  18.5621  18.8692  19.1818  20.6811  20.8375
    21.9732  22.0844  22.3103  23.3852

[...]

     total energy              =    -653.73710955 Ry
     estimated scf accuracy    <       0.00064825 Ry

     iteration #  6     ecut=    50.00 Ry     beta= 0.70
     Davidson diagonalization with overlap
     ethr =  8.37E-07,  avg # of iterations =  1.0

     total cpu time spent up to now is       82.4 secs

     total energy              =    -653.73711643 Ry
     estimated scf accuracy    <       0.00006511 Ry

     iteration #  7     ecut=    50.00 Ry     beta= 0.70
     Davidson diagonalization with overlap
     ethr =  2.03E-07,  avg # of iterations =  1.0

     total cpu time spent up to now is       82.9 secs

     total energy              =    -653.73711858 Ry
     estimated scf accuracy    <       0.00000144 Ry

     iteration #  8     ecut=    50.00 Ry     beta= 0.70
     Davidson diagonalization with overlap
     ethr =  4.51E-09,  avg # of iterations =  2.3

     total cpu time spent up to now is       83.5 secs

     total energy              =    -653.73711873 Ry
     estimated scf accuracy    <          6.3E-09 Ry

     iteration #  9     ecut=    50.00 Ry     beta= 0.70
     Davidson diagonalization with overlap
     ethr =  1.95E-11,  avg # of iterations =  4.2

     total cpu time spent up to now is       84.3 secs

     total energy              =    -653.73711873 Ry
     estimated scf accuracy    <       0.00000002 Ry

     iteration # 10     ecut=    50.00 Ry     beta= 0.70
     Davidson diagonalization with overlap
     ethr =  1.95E-11,  avg # of iterations =  1.0

     total cpu time spent up to now is       84.9 secs

     total energy              =    -653.73711873 Ry
     estimated scf accuracy    <          2.1E-09 Ry

     iteration # 11     ecut=    50.00 Ry     beta= 0.70
     Davidson diagonalization with overlap
     ethr =  6.62E-12,  avg # of iterations =  1.0

     total cpu time spent up to now is       85.4 secs

     End of self-consistent calculation

          k = 0.0000 0.0000 0.0000 (   799 PWs)   bands (ev):

   -65.8245 -65.5840 -32.0872 -32.0872 -32.0872 -31.6201 -31.6201 -31.6201
    11.9305  16.1906  16.1906  19.3410  19.3410  19.3410  21.1938  21.1938
    22.3903  22.3903  22.3903  32.0055

          k = 0.0000 0.0000 0.0958 (   787 PWs)   bands (ev):

   -65.8189 -65.5881 -32.0848 -32.0757 -32.0757 -31.6397 -31.6291 -31.6291
    12.1199  16.2875  16.2905  19.3290  19.3290  19.3974  21.0856  21.2319
    22.2060  22.2060  22.3313  30.9184

          k = 0.0000 0.0000 0.1916 (   799 PWs)   bands (ev):

   -65.8026 -65.6002 -32.0827 -32.0467 -32.0467 -31.6920 -31.6561 -31.6561
    12.6751  16.5204  16.5598  19.3194  19.3194  19.5588  20.7667  21.3526
    21.6994  21.6994  22.1441  28.7311

          k = 0.0000 0.0000 0.2875 (   800 PWs)   bands (ev):

   -65.7775 -65.6199 -32.0707 -32.0016 -32.0016 -31.7673 -31.6974 -31.6974
    13.5470  16.7886  16.9937  19.3494  19.3494  19.8304  20.2722  21.0835
    21.0835  21.5351  21.8412  26.4448

          k = 0.0000 0.0000 0.3833 (   812 PWs)   bands (ev):

   -65.7463 -65.6462 -32.0455 -31.9451 -31.9451 -31.8507 -31.7516 -31.7516
    14.6296  16.8809  17.5560  19.4509  19.4509  19.6425  20.1816  20.4893
    20.4893  21.4568  21.8079  24.4548

          k = 0.0000 0.0000 0.4791 (   812 PWs)   bands (ev):

   -65.7119 -65.6776 -31.9988 -31.9320 -31.8806 -31.8806 -31.8140 -31.8140
    15.7341  16.5613  18.2237  18.9392  19.6655  19.6655  20.0071  20.0071
    20.5932  21.0285  22.2183  23.0307

          k = 0.0000 0.0958 0.0958 (   790 PWs)   bands (ev):

   -65.8134 -65.5919 -32.1015 -32.0661 -32.0494 -31.6755 -31.6380 -31.6206
    12.3072  16.3714  16.3852  19.2151  19.3134  19.5551  21.0709  21.1990
    21.8754  22.0054  22.4286  30.9944

          k = 0.0000 0.0958 0.1916 (   797 PWs)   bands (ev):

   -65.7977 -65.6035 -32.1117 -32.0381 -32.0101 -31.7393 -31.6630 -31.6326
    12.8536  16.6032  16.6453  19.1200  19.2765  19.8125  20.8285  21.3014
    21.3143  21.5155  22.3576  28.9765

          k = 0.0000 0.0958 0.2875 (   812 PWs)   bands (ev):

   -65.7736 -65.6223 -32.1100 -31.9954 -31.9591 -31.8204 -31.7030 -31.6651
    13.7043  16.8643  17.0530  19.0872  19.2402  20.1328  20.4305  20.6930
    20.9440  21.4908  22.1160  26.6649

          k = 0.0000 0.0958 0.3833 (   810 PWs)   bands (ev):

   -65.7434 -65.6474 -32.0904 -31.9406 -31.9052 -31.8995 -31.7545 -31.7119
    14.7548  16.9423  17.5851  19.1526  19.1571  20.0451  20.1207  20.4597
    20.5115  21.7699  21.7727  24.6209

          k = 0.0000 0.0958 0.4791 (   814 PWs)   bands (ev):

   -65.7104 -65.6775 -32.0482 -31.9860 -31.8782 -31.8345 -31.8148 -31.7710
    15.8138  16.6136  18.1907  18.7747  19.3377  19.6618  19.9581  20.1396
    20.9287  21.3646  22.2099  23.1075

          k = 0.0000 0.1916 0.1916 (   802 PWs)   bands (ev):

   -65.7837 -65.6133 -32.1439 -32.0139 -31.9540 -31.8188 -31.6845 -31.6212
    13.3669  16.7657  16.9367  18.8959  19.1802  20.1947  20.6906  20.8924
    21.0907  21.2395  22.4983  28.9636

          k = 0.0000 0.1916 0.2875 (   804 PWs)   bands (ev):

   -65.7621 -65.6294 -32.1606 -31.9753 -31.9088 -31.8925 -31.7190 -31.6325
    14.1502  16.9402  17.3546  18.7500  19.0983  20.0600  20.6115  20.6706
    20.7291  21.3821  22.4462  27.0773

          k = 0.0000 0.1916 0.3833 (   810 PWs)   bands (ev):

   -65.7353 -65.6511 -32.1581 -31.9967 -31.9273 -31.8290 -31.7640 -31.6625
    15.0800  16.9409  17.8319  18.7221  19.0013  19.5097  20.4373  20.5275
    21.0487  21.6657  22.2227  24.9823

          k = 0.0000 0.1916 0.4791 (   815 PWs)   bands (ev):

   -65.7061 -65.6773 -32.1293 -32.0742 -31.8724 -31.8168 -31.7657 -31.7094
    15.9677  16.6251  18.3224  18.7491  18.8288  19.0973  20.4182  20.4464
    21.4810  21.8855  22.1870  23.2823

          k = 0.0000 0.2875 0.2875 (   810 PWs)   bands (ev):

   -65.7446 -65.6413 -32.1993 -32.0027 -31.9454 -31.8257 -31.7449 -31.6215
    14.7880  16.9038  17.8474  18.4973  19.0934  19.4467  20.4819  20.9281
    21.1049  21.3179  22.5873  26.7340

          k = 0.0000 0.2875 0.3833 (   811 PWs)   bands (ev):

   -65.7231 -65.6576 -32.2147 -32.0910 -31.9062 -31.7794 -31.7614 -31.6323
    15.4632  16.7436  18.3672  18.3982  18.9421  19.2128  20.5246  20.9087
    21.5004  21.5750  22.5442  25.1478

          k = 0.0000 0.2875 0.4791 (   807 PWs)   bands (ev):

   -65.7000 -65.6776 -32.2022 -32.1598 -31.8634 -31.8198 -31.7058 -31.6607
    16.0303  16.4486  18.3932  18.5834  18.8928  19.2067  20.7082  20.8660
    21.9952  22.1143  22.3325  23.4070

          k = 0.0000 0.3833 0.3833 (   816 PWs)   bands (ev):

   -65.7085 -65.6669 -32.2497 -32.1723 -31.8807 -31.8002 -31.7045 -31.6224
    15.7675  16.4716  18.1470  18.4943  19.0993  19.8113  20.7135  21.1041
    21.3972  22.0337  22.6763  24.5442

          k = 0.0000 0.3833 0.4791 (   810 PWs)   bands (ev):

   -65.6932 -65.6790 -32.2555 -32.2288 -31.8527 -31.8252 -31.6604 -31.6318
    15.9918  16.2129  18.0871  18.2032  19.7511  20.1361  20.9523  21.1251
    21.8986  22.3964  22.6214  23.2188

          k = 0.0000 0.4791 0.4791 (   802 PWs)   bands (ev):

   -65.6870 -65.6821 -32.2781 -32.2705 -31.8410 -31.8324 -31.6322 -31.6222
    15.9697  16.0440  17.9489  17.9862  20.6631  21.0998  21.1223  21.3990
    21.4653  22.5019  22.6517  22.7384

          k = 0.0958 0.0958 0.0958 (   796 PWs)   bands (ev):

   -65.8082 -65.5956 -32.0918 -32.0918 -32.0163 -31.7080 -31.6300 -31.6300
    12.4922  16.4655  16.4655  19.1894  19.1894  19.7312  21.1200  21.1200
    21.4342  22.2294  22.2294  31.3512

          k = 0.0958 0.0958 0.1916 (   801 PWs)   bands (ev):

   -65.7930 -65.6066 -32.1126 -32.0618 -31.9711 -31.7739 -31.6574 -31.6340
    13.0301  16.7067  16.7071  19.0559  19.1305  20.0317  20.8203  20.8848
    21.2566  21.7378  22.2793  29.2359

          k = 0.0958 0.0958 0.2875 (   809 PWs)   bands (ev):

   -65.7697 -65.6245 -32.1210 -32.0151 -31.9179 -31.8557 -31.7001 -31.6566
    13.8645  16.9700  17.0913  19.0020  19.0530  20.2257  20.3926  20.5415
    21.1488  21.4551  22.1298  26.9027

          k = 0.0958 0.0958 0.3833 (   812 PWs)   bands (ev):

   -65.7407 -65.6485 -32.1098 -31.9559 -31.9396 -31.8604 -31.7559 -31.6946
    14.8848  17.0317  17.5832  18.9152  19.0661  19.7705  20.2058  20.6129
    20.7967  21.7441  21.8532  24.8241

          k = 0.0958 0.0958 0.4791 (   812 PWs)   bands (ev):

   -65.7089 -65.6773 -32.0743 -32.0166 -31.8893 -31.8207 -31.8007 -31.7440
    15.9063  16.6844  18.1219  18.6076  19.2499  19.4833  20.0697  20.2256
    21.1813  21.5251  22.2437  23.2396

          k = 0.0958 0.1916 0.1916 (   807 PWs)   bands (ev):

   -65.7795 -65.6160 -32.1328 -32.0504 -31.9157 -31.8464 -31.6749 -31.6318
    13.5379  16.8752  16.9949  18.8470  19.0065  20.1825  20.4207  20.9483
    21.2023  21.4842  22.3021  29.3047

          k = 0.0958 0.1916 0.2875 (   806 PWs)   bands (ev):

   -65.7586 -65.6313 -32.1531 -32.0097 -31.9303 -31.8583 -31.7127 -31.6395
    14.3134  17.0677  17.3755  18.7003  18.9089  19.6217  20.7812  20.8790
    21.0172  21.3640  22.2694  27.3732

          k = 0.0958 0.1916 0.3833 (   814 PWs)   bands (ev):

   -65.7328 -65.6520 -32.1560 -32.0138 -31.9539 -31.8014 -31.7646 -31.6633
    15.2250  17.0783  17.7781  18.6160  18.8610  19.2630  20.5728  20.6508
    21.2950  21.6881  22.0892  25.2712

          k = 0.0958 0.1916 0.4791 (   809 PWs)   bands (ev):

   -65.7047 -65.6770 -32.1329 -32.0844 -31.8900 -31.8251 -31.7474 -31.7004
    16.0915  16.7434  18.1690  18.4675  18.9307  19.0751  20.4640  20.4848
    21.5606  21.8228  22.3845  23.5633

          k = 0.0958 0.2875 0.2875 (   806 PWs)   bands (ev):

   -65.7417 -65.6426 -32.1868 -32.0150 -31.9776 -31.8001 -31.7402 -31.6329
    14.9539  17.0400  17.8616  18.4523  18.8781  19.1110  20.7695  20.9604
    21.3103  21.4044  22.3732  27.1186

          k = 0.0958 0.2875 0.3833 (   805 PWs)   bands (ev):

   -65.7210 -65.6581 -32.2035 -32.0955 -31.9318 -31.7801 -31.7456 -31.6411
    15.6250  16.8812  18.3179  18.3248  18.8043  18.9903  20.6872  20.9178
    21.4566  21.9623  22.3073  25.5595

          k = 0.0958 0.2875 0.4791 (   804 PWs)   bands (ev):

   -65.6988 -65.6772 -32.1953 -32.1581 -31.8799 -31.8279 -31.6998 -31.6642
    16.1768  16.5864  18.3010  18.3865  18.9291  19.0844  20.7671  20.8581
    21.7185  22.0606  22.7053  23.8991

          k = 0.0958 0.3833 0.3833 (   812 PWs)   bands (ev):

   -65.7069 -65.6669 -32.2360 -32.1685 -31.9013 -31.8033 -31.6998 -31.6345
    15.9280  16.6060  18.1115  18.3886  19.0329  19.4870  20.8142  21.1039
    21.4054  22.3479  22.4777  25.1068

          k = 0.0958 0.3833 0.4791 (   808 PWs)   bands (ev):

   -65.6921 -65.6785 -32.2433 -32.2197 -31.8665 -31.8325 -31.6647 -31.6418
    16.1408  16.3490  18.0504  18.1438  19.6211  19.8676  20.9973  21.1176
    21.6437  22.1190  23.0828  24.0112

          k = 0.0958 0.4791 0.4791 (   811 PWs)   bands (ev):

   -65.6861 -65.6814 -32.2651 -32.2579 -31.8525 -31.8407 -31.6428 -31.6352
    16.1117  16.1786  17.9203  17.9529  20.4118  20.6722  21.1513  21.2082
    21.4699  21.8577  23.4342  23.7892

          k = 0.1916 0.1916 0.1916 (   802 PWs)   bands (ev):

   -65.7673 -65.6239 -32.1001 -32.1001 -31.9087 -31.8598 -31.6603 -31.6603
    14.0328  17.1597  17.1597  18.7370  18.7370  19.5199  20.8836  21.1025
    21.1025  21.8357  21.8357  30.1979

          k = 0.1916 0.1916 0.2875 (   809 PWs)   bands (ev):

   -65.7486 -65.6370 -32.1384 -32.0501 -31.9828 -31.8060 -31.7075 -31.6570
    14.7694  17.4037  17.4411  18.5736  18.5793  19.0037  20.9438  21.2935
    21.3199  21.4250  21.9702  28.0378

          k = 0.1916 0.1916 0.3833 (   800 PWs)   bands (ev):

   -65.7256 -65.6548 -32.1569 -32.0550 -31.9855 -31.7678 -31.7572 -31.6641
    15.6129  17.3809  17.6932  18.4106  18.6060  18.8731  20.7765  20.9110
    21.4822  21.9159  22.0561  25.9093

          k = 0.1916 0.1916 0.4791 (   805 PWs)   bands (ev):

   -65.7008 -65.6765 -32.1491 -32.1134 -31.9131 -31.8384 -31.7168 -31.6852
    16.3746  16.9699  17.9733  18.2129  18.7913  18.9166  20.6556  20.6832
    21.6197  21.7604  22.9103  24.1644

          k = 0.1916 0.2875 0.2875 (   808 PWs)   bands (ev):

   -65.7335 -65.6465 -32.1509 -32.0479 -32.0379 -31.7583 -31.7303 -31.6658
    15.4179  17.4152  17.8898  18.3318  18.4809  18.5394  21.0762  21.1981
    21.2848  21.9218  22.0152  28.0745

          k = 0.1916 0.2875 0.3833 (   807 PWs)   bands (ev):

   -65.7150 -65.6598 -32.1738 -32.1095 -31.9839 -31.7815 -31.7203 -31.6679
    16.0708  17.2430  18.0858  18.1899  18.5475  18.5774  20.9965  21.0218
    21.4351  21.8987  22.6795  26.4703

          k = 0.1916 0.2875 0.4791 (   803 PWs)   bands (ev):

   -65.6953 -65.6763 -32.1779 -32.1552 -31.9162 -31.8461 -31.6931 -31.6750
    16.5668  16.9312  18.0756  18.1122  18.7704  18.8224  20.9262  20.9486
    21.6004  21.7614  23.5431  24.7951

          k = 0.1916 0.3833 0.3833 (   802 PWs)   bands (ev):

   -65.7022 -65.6672 -32.1971 -32.1601 -31.9494 -31.8091 -31.6947 -31.6699
    16.3854  16.9583  18.0233  18.1644  18.8430  18.8718  21.0455  21.1763
    21.4178  21.8817  23.3582  26.2747

          k = 0.1916 0.3833 0.4791 (   803 PWs)   bands (ev):

   -65.6892 -65.6771 -32.2078 -32.1953 -31.9011 -31.8513 -31.6793 -31.6721
    16.5530  16.7210  17.9594  18.0163  19.2591  19.2692  21.1212  21.1747
    21.5331  21.7282  24.1614  25.2192

          k = 0.1916 0.4791 0.4791 (   816 PWs)   bands (ev):

   -65.6837 -65.6795 -32.2257 -32.2214 -31.8797 -31.8619 -31.6743 -31.6726
    16.5103  16.5597  17.8527  17.8810  19.7723  19.7981  21.2381  21.2684
    21.4811  21.5878  24.7360  25.1837

          k = 0.2875 0.2875 0.2875 (   805 PWs)   bands (ev):

   -65.7210 -65.6533 -32.0947 -32.0947 -32.0902 -31.7249 -31.7178 -31.7178
    16.0679  17.9230  17.9230  18.0024  18.1860  18.1860  21.2402  21.2402
    21.5032  21.5032  22.7187  29.3441

          k = 0.2875 0.2875 0.3833 (   802 PWs)   bands (ev):

   -65.7060 -65.6630 -32.1383 -32.1299 -32.0240 -31.7847 -31.7043 -31.7040
    16.6628  17.5430  17.9323  18.0612  18.1941  18.4226  21.1815  21.2323
    21.4129  21.6315  23.4881  27.4625

          k = 0.2875 0.2875 0.4791 (   810 PWs)   bands (ev):

   -65.6903 -65.6756 -32.1601 -32.1561 -31.9446 -31.8625 -31.6962 -31.6951
    16.9852  17.2194  17.9408  17.9764  18.4959  18.6535  21.1220  21.1261
    21.5394  21.6208  24.4360  25.7421

          k = 0.2875 0.3833 0.3833 (   807 PWs)   bands (ev):

   -65.6955 -65.6683 -32.1504 -32.1372 -32.0073 -31.8104 -31.7264 -31.7004
    17.0498  17.3440  17.9234  18.0324  18.2878  18.5587  21.2780  21.2939
    21.4211  21.5810  24.3384  27.6868

          k = 0.2875 0.3833 0.4791 (   806 PWs)   bands (ev):

   -65.6850 -65.6757 -32.1612 -32.1556 -31.9435 -31.8716 -31.7198 -31.7071
    17.1113  17.1754  17.8805  17.9343  18.6729  18.8003  21.2773  21.2917
    21.5027  21.5627  25.3158  26.5317

          k = 0.2875 0.4791 0.4791 (   811 PWs)   bands (ev):

   -65.6804 -65.6772 -32.1648 -32.1622 -31.9169 -31.8872 -31.7315 -31.7240
    17.0747  17.0781  17.7964  17.8245  19.0447  19.0907  21.3505  21.3646
    21.4973  21.5253  26.1582  26.7413

          k = 0.3833 0.3833 0.3833 (   813 PWs)   bands (ev):

   -65.6880 -65.6706 -32.1409 -32.0605 -32.0605 -31.8000 -31.8000 -31.7183
    17.4327  17.7287  17.8657  17.8657  18.2606  18.2606  21.4110  21.4110
    21.4426  21.4426  25.3517  29.2580

          k = 0.3833 0.3833 0.4791 (   806 PWs)   bands (ev):

   -65.6807 -65.6748 -32.1265 -32.1001 -31.9732 -31.8839 -31.7759 -31.7459
    17.4228  17.5380  17.8947  18.0294  18.3127  18.4732  21.4046  21.4058
    21.4948  21.5137  26.4681  27.8009

          k = 0.3833 0.4791 0.4791 (   813 PWs)   bands (ev):

   -65.6772 -65.6752 -32.0982 -32.0816 -31.9543 -31.9047 -31.8088 -31.7867
    17.5157  17.6295  17.7910  17.9110  18.4705  18.5297  21.4554  21.4559
    21.5049  21.5157  27.6044  28.4249

          k = 0.4791 0.4791 0.4791 (   819 PWs)   bands (ev):

   -65.6751 -65.6743 -32.0349 -31.9909 -31.9909 -31.8980 -31.8980 -31.8507
    17.7265  17.8860  17.8860  18.1275  18.1275  18.1785  21.5084  21.5084
    21.5181  21.5181  29.0157  30.2118

     the Fermi energy is    21.2476 ev

!    total energy              =    -653.73711873 Ry
     total all-electron energy =     -5086.388537 Ry
     estimated scf accuracy    <          3.4E-11 Ry
     smearing contrib. (-TS)   =      -0.01638414 Ry
     internal energy E=F+TS    =    -653.72073460 Ry

     The total energy is F=E-TS. E is the sum of the following terms:
     one-electron contribution =    -195.35871086 Ry
     hartree contribution      =     120.89599714 Ry
     xc contribution           =     -54.80491406 Ry
     ewald contribution        =    -363.01059231 Ry
     one-center paw contrib.   =    -161.44251451 Ry

     convergence has been achieved in  11 iterations

     Forces acting on atoms (cartesian axes, Ry/au):

     atom    1 type  1   force =     0.00000000    0.00000000    0.00000000
     atom    2 type  1   force =     0.00000000    0.00000000    0.00000000

     Total force =     0.000000     Total SCF correction =     0.000000


     Computing stress (Cartesian axis) and pressure

          total   stress  (Ry/bohr**3)                   (kbar)     P=     -234.02
  -0.00159082   0.00000000   0.00000000         -234.02        0.00        0.00
   0.00000000  -0.00159082   0.00000000            0.00     -234.02        0.00
   0.00000000   0.00000000  -0.00159082            0.00        0.00     -234.02


     Writing all to output data dir ./temp/fe-nm.save/ :
     XML data file, charge density, pseudopotentials, collected wavefunctions

     init_run     :      1.65s CPU      1.71s WALL (       2 calls)
     electrons    :     72.24s CPU     76.91s WALL (       6 calls)
     update_pot   :      0.42s CPU      0.43s WALL (       4 calls)
     forces       :      0.94s CPU      0.95s WALL (       6 calls)
     stress       :      4.62s CPU      4.72s WALL (       6 calls)

     Called by init_run:
     wfcinit      :      0.45s CPU      0.47s WALL (       2 calls)
     potinit      :      0.32s CPU      0.33s WALL (       2 calls)
     hinit0       :      0.75s CPU      0.76s WALL (       2 calls)

     Called by electrons:
     c_bands      :     55.01s CPU     58.79s WALL (      62 calls)
     sum_band     :      9.04s CPU      9.64s WALL (      62 calls)
     v_of_rho     :      0.36s CPU      0.37s WALL (      65 calls)
     newd         :      2.81s CPU      2.88s WALL (      65 calls)
     PAW_pot      :      6.05s CPU      6.26s WALL (      69 calls)
     mix_rho      :      0.04s CPU      0.04s WALL (      62 calls)

     Called by c_bands:
     init_us_2    :      0.77s CPU      0.82s WALL (    7952 calls)
     cegterg      :     53.22s CPU     56.90s WALL (    3472 calls)

     Called by *egterg:
     cdiaghg      :      6.32s CPU      6.65s WALL (   12613 calls)
     h_psi        :     28.60s CPU     30.79s WALL (   13117 calls)
     s_psi        :      3.14s CPU      3.42s WALL (   13117 calls)
     g_psi        :      0.12s CPU      0.13s WALL (    9533 calls)

     Called by h_psi:
     h_psi:calbec :      3.70s CPU      4.06s WALL (   13117 calls)
     vloc_psi     :     21.50s CPU     23.02s WALL (   13117 calls)
     add_vuspsi   :      3.23s CPU      3.52s WALL (   13117 calls)

     General routines
     calbec       :      5.83s CPU      6.35s WALL (   18493 calls)
     fft          :      0.36s CPU      0.37s WALL (     990 calls)
     ffts         :      0.12s CPU      0.12s WALL (     127 calls)
     fftw         :     21.78s CPU     23.41s WALL (  448138 calls)
     interpolate  :      0.15s CPU      0.16s WALL (      65 calls)

     Parallel routines

     PWSCF        :   1m20.96s CPU   1m26.00s WALL


   This run was terminated on:  20:46:30  23Dec2024            

=------------------------------------------------------------------------------=
   JOB DONE.
=------------------------------------------------------------------------------=
