
     Program PWSCF v.7.3.1 starts on 23Dec2024 at  7: 9:37 

     This program is part of the open-source Quantum ESPRESSO suite
     for quantum simulation of materials; please cite
         "P. Giannozzi et al., J. Phys.:Condens. Matter 21 395502 (2009);
         "P. Giannozzi et al., J. Phys.:Condens. Matter 29 465901 (2017);
         "P. Giannozzi et al., J. Chem. Phys. 152 154105 (2020);
          URL http://www.quantum-espresso.org", 
     in publications or presentations arising from this work. More details at
     http://www.quantum-espresso.org/quote

     Parallel version (MPI), running on     2 processors

     MPI processes distributed on     1 nodes
     2864 MiB available memory on the printing compute node when the environment starts

     Reading input from vc_relax_NM.in

     Current dimensions of program PWSCF are:
     Max number of different atomic species (ntypx) = 10
     Max number of k-points (npk) =  40000
     Max angular momentum in pseudopotentials (lmaxx) =  4
     file Fe.pbesol-spn-kjpaw_psl.1.0.0.UPF: wavefunction(s)  3P 3D renormalized
     file Fe.pbesol-spn-kjpaw_psl.1.0.0.UPF: wavefunction(s)  3P 3D renormalized
     Found identity + ( -0.5000 -0.5000 -0.5000) symmetry
     This is a supercell, fractional translations are disabled

     R & G space division:  proc/nbgrp/npool/nimage =       2
     Subspace diagonalization in iterative solution of the eigenvalue problem:
     a serial algorithm will be used


     Parallelization info
     --------------------
     sticks:   dense  smooth     PW     G-vecs:    dense   smooth      PW
     Min         470     236     72                10683     3760     678
     Max         471     237     73                10684     3761     679
     Sum         941     473    145                21367     7521    1357

     Using Slab Decomposition



     bravais-lattice index     =            1
     lattice parameter (alat)  =       5.4104  a.u.
     unit-cell volume          =     158.3714 (a.u.)^3
     number of atoms/cell      =            2
     number of atomic types    =            2
     number of electrons       =        32.00
     number of Kohn-Sham states=           20
     kinetic-energy cutoff     =      50.0000  Ry
     charge density cutoff     =     400.0000  Ry
     scf convergence threshold =      1.0E-08
     mixing beta               =       0.7000
     number of iterations used =            8  plain     mixing
     energy convergence thresh.=      1.0E-05
     force convergence thresh. =      1.0E-04
     press convergence thresh. =      5.0E-01
     Exchange-correlation= SLA  PW   PSX  PSC
                           (   1   4  10   8   0   0   0)
     nstep                     =           50


     celldm(1)=   5.410353  celldm(2)=   0.000000  celldm(3)=   0.000000
     celldm(4)=   0.000000  celldm(5)=   0.000000  celldm(6)=   0.000000

     crystal axes: (cart. coord. in units of alat)
               a(1) = (   1.000000   0.000000   0.000000 )  
               a(2) = (   0.000000   1.000000   0.000000 )  
               a(3) = (   0.000000   0.000000   1.000000 )  

     reciprocal axes: (cart. coord. in units 2 pi/alat)
               b(1) = (  1.000000  0.000000  0.000000 )  
               b(2) = (  0.000000  1.000000  0.000000 )  
               b(3) = (  0.000000  0.000000  1.000000 )  


     PseudoPot. # 1 for Fe read from file:
     ./../../pseudos/Fe.pbesol-spn-kjpaw_psl.1.0.0.UPF
     MD5 check sum: e30d5f36a6f0cb983ee41abee56170da
     Pseudo is Projector augmented-wave + core cor, Zval = 16.0
     Generated using &quot;atomic&quot; code by A. Dal Corso  v.6.3
     Shape of augmentation charge: PSQ
     Using radial grid of 1191 points,  6 beta functions with: 
                l(1) =   0
                l(2) =   0
                l(3) =   1
                l(4) =   1
                l(5) =   2
                l(6) =   2
     Q(r) pseudized with 0 coefficients 


     PseudoPot. # 2 for Fe read from file:
     ./../../pseudos/Fe.pbesol-spn-kjpaw_psl.1.0.0.UPF
     MD5 check sum: e30d5f36a6f0cb983ee41abee56170da
     Pseudo is Projector augmented-wave + core cor, Zval = 16.0
     Generated using &quot;atomic&quot; code by A. Dal Corso  v.6.3
     Shape of augmentation charge: PSQ
     Using radial grid of 1191 points,  6 beta functions with: 
                l(1) =   0
                l(2) =   0
                l(3) =   1
                l(4) =   1
                l(5) =   2
                l(6) =   2
     Q(r) pseudized with 0 coefficients 


     atomic species   valence    mass     pseudopotential
     Fe1              16.00    55.84500     Fe( 1.00)
     Fe2              16.00    55.84500     Fe( 1.00)

     48 Sym. Ops., with inversion, found



   Cartesian axes

     site n.     atom                  positions (alat units)
         1        Fe1    tau(   1) = (   0.0000000   0.0000000   0.0000000  )
         2        Fe1    tau(   2) = (   0.5000000   0.5000000   0.5000000  )

     number of k points=    56  Gaussian smearing, width (Ry)=  0.0200
                       cart. coord. in units 2pi/alat
        k(    1) = (   0.0000000   0.0000000   0.0000000), wk =   0.0015026
        k(    2) = (   0.0000000   0.0000000   0.0909091), wk =   0.0090158
        k(    3) = (   0.0000000   0.0000000   0.1818182), wk =   0.0090158
        k(    4) = (   0.0000000   0.0000000   0.2727273), wk =   0.0090158
        k(    5) = (   0.0000000   0.0000000   0.3636364), wk =   0.0090158
        k(    6) = (   0.0000000   0.0000000   0.4545455), wk =   0.0090158
        k(    7) = (   0.0000000   0.0909091   0.0909091), wk =   0.0180316
        k(    8) = (   0.0000000   0.0909091   0.1818182), wk =   0.0360631
        k(    9) = (   0.0000000   0.0909091   0.2727273), wk =   0.0360631
        k(   10) = (   0.0000000   0.0909091   0.3636364), wk =   0.0360631
        k(   11) = (   0.0000000   0.0909091   0.4545455), wk =   0.0360631
        k(   12) = (   0.0000000   0.1818182   0.1818182), wk =   0.0180316
        k(   13) = (   0.0000000   0.1818182   0.2727273), wk =   0.0360631
        k(   14) = (   0.0000000   0.1818182   0.3636364), wk =   0.0360631
        k(   15) = (   0.0000000   0.1818182   0.4545455), wk =   0.0360631
        k(   16) = (   0.0000000   0.2727273   0.2727273), wk =   0.0180316
        k(   17) = (   0.0000000   0.2727273   0.3636364), wk =   0.0360631
        k(   18) = (   0.0000000   0.2727273   0.4545455), wk =   0.0360631
        k(   19) = (   0.0000000   0.3636364   0.3636364), wk =   0.0180316
        k(   20) = (   0.0000000   0.3636364   0.4545455), wk =   0.0360631
        k(   21) = (   0.0000000   0.4545455   0.4545455), wk =   0.0180316
        k(   22) = (   0.0909091   0.0909091   0.0909091), wk =   0.0120210
        k(   23) = (   0.0909091   0.0909091   0.1818182), wk =   0.0360631
        k(   24) = (   0.0909091   0.0909091   0.2727273), wk =   0.0360631
        k(   25) = (   0.0909091   0.0909091   0.3636364), wk =   0.0360631
        k(   26) = (   0.0909091   0.0909091   0.4545455), wk =   0.0360631
        k(   27) = (   0.0909091   0.1818182   0.1818182), wk =   0.0360631
        k(   28) = (   0.0909091   0.1818182   0.2727273), wk =   0.0721262
        k(   29) = (   0.0909091   0.1818182   0.3636364), wk =   0.0721262
        k(   30) = (   0.0909091   0.1818182   0.4545455), wk =   0.0721262
        k(   31) = (   0.0909091   0.2727273   0.2727273), wk =   0.0360631
        k(   32) = (   0.0909091   0.2727273   0.3636364), wk =   0.0721262
        k(   33) = (   0.0909091   0.2727273   0.4545455), wk =   0.0721262
        k(   34) = (   0.0909091   0.3636364   0.3636364), wk =   0.0360631
        k(   35) = (   0.0909091   0.3636364   0.4545455), wk =   0.0721262
        k(   36) = (   0.0909091   0.4545455   0.4545455), wk =   0.0360631
        k(   37) = (   0.1818182   0.1818182   0.1818182), wk =   0.0120210
        k(   38) = (   0.1818182   0.1818182   0.2727273), wk =   0.0360631
        k(   39) = (   0.1818182   0.1818182   0.3636364), wk =   0.0360631
        k(   40) = (   0.1818182   0.1818182   0.4545455), wk =   0.0360631
        k(   41) = (   0.1818182   0.2727273   0.2727273), wk =   0.0360631
        k(   42) = (   0.1818182   0.2727273   0.3636364), wk =   0.0721262
        k(   43) = (   0.1818182   0.2727273   0.4545455), wk =   0.0721262
        k(   44) = (   0.1818182   0.3636364   0.3636364), wk =   0.0360631
        k(   45) = (   0.1818182   0.3636364   0.4545455), wk =   0.0721262
        k(   46) = (   0.1818182   0.4545455   0.4545455), wk =   0.0360631
        k(   47) = (   0.2727273   0.2727273   0.2727273), wk =   0.0120210
        k(   48) = (   0.2727273   0.2727273   0.3636364), wk =   0.0360631
        k(   49) = (   0.2727273   0.2727273   0.4545455), wk =   0.0360631
        k(   50) = (   0.2727273   0.3636364   0.3636364), wk =   0.0360631
        k(   51) = (   0.2727273   0.3636364   0.4545455), wk =   0.0721262
        k(   52) = (   0.2727273   0.4545455   0.4545455), wk =   0.0360631
        k(   53) = (   0.3636364   0.3636364   0.3636364), wk =   0.0120210
        k(   54) = (   0.3636364   0.3636364   0.4545455), wk =   0.0360631
        k(   55) = (   0.3636364   0.4545455   0.4545455), wk =   0.0360631
        k(   56) = (   0.4545455   0.4545455   0.4545455), wk =   0.0120210

     Dense  grid:    21367 G-vectors     FFT dimensions: (  36,  36,  36)

     Smooth grid:     7521 G-vectors     FFT dimensions: (  25,  25,  25)

     Estimated max dynamical RAM per process >      53.99 MB

     Estimated total dynamical RAM >     107.99 MB

     Check: negative core charge=   -0.000006

     Initial potential from superposition of free atoms

     starting charge      31.9992, renormalised to      32.0000
     Starting wfcs are   20 randomized atomic wfcs
     Checking if some PAW data can be deallocated... 

     total cpu time spent up to now is        6.6 secs

     Self-consistent Calculation

     iteration #  1     ecut=    50.00 Ry     beta= 0.70
     Davidson diagonalization with overlap
     ethr =  1.00E-02,  avg # of iterations =  3.2

     Threshold (ethr) on eigenvalues was too large:
     Diagonalizing with lowered threshold

     Davidson diagonalization with overlap
     ethr =  1.96E-04,  avg # of iterations =  2.8

     total cpu time spent up to now is       20.3 secs

     total energy              =    -653.66562322 Ry
     estimated scf accuracy    <       0.08393443 Ry

     iteration #  2     ecut=    50.00 Ry     beta= 0.70
     Davidson diagonalization with overlap
     ethr =  2.62E-04,  avg # of iterations =  3.7

     total cpu time spent up to now is       29.6 secs

     total energy              =    -653.65173834 Ry
     estimated scf accuracy    <       0.33756475 Ry

     iteration #  3     ecut=    50.00 Ry     beta= 0.70
     Davidson diagonalization with overlap
     ethr =  2.62E-04,  avg # of iterations =  3.5

     total cpu time spent up to now is       36.6 secs

     total energy              =    -653.65269041 Ry
     estimated scf accuracy    <       1.99678837 Ry

     iteration #  4     ecut=    50.00 Ry     beta= 0.70
     Davidson diagonalization with overlap
     ethr =  2.62E-04,  avg # of iterations =  2.1

     total cpu time spent up to now is       42.4 secs

     total energy              =    -653.71206332 Ry
     estimated scf accuracy    <       0.00044529 Ry

     iteration #  5     ecut=    50.00 Ry     beta= 0.70
     Davidson diagonalization with overlap
     ethr =  1.39E-06,  avg # of iterations =  4.5

     total cpu time spent up to now is       51.0 secs

     total energy              =    -653.71252710 Ry
     estimated scf accuracy    <       0.00133404 Ry

     iteration #  6     ecut=    50.00 Ry     beta= 0.70
     Davidson diagonalization with overlap
     ethr =  1.39E-06,  avg # of iterations =  1.0

     total cpu time spent up to now is       56.0 secs

     total energy              =    -653.71254039 Ry
     estimated scf accuracy    <       0.00015692 Ry

     iteration #  7     ecut=    50.00 Ry     beta= 0.70
     Davidson diagonalization with overlap
     ethr =  4.90E-07,  avg # of iterations =  1.0

     total cpu time spent up to now is       60.8 secs

     total energy              =    -653.71253943 Ry
     estimated scf accuracy    <       0.00004404 Ry

     iteration #  8     ecut=    50.00 Ry     beta= 0.70
     Davidson diagonalization with overlap
     ethr =  1.38E-07,  avg # of iterations =  1.0

     total cpu time spent up to now is       65.7 secs

     total energy              =    -653.71254051 Ry
     estimated scf accuracy    <       0.00000105 Ry

     iteration #  9     ecut=    50.00 Ry     beta= 0.70
     Davidson diagonalization with overlap
     ethr =  3.30E-09,  avg # of iterations =  3.4

     total cpu time spent up to now is       72.8 secs

     total energy              =    -653.71254062 Ry
     estimated scf accuracy    <       0.00000023 Ry

     iteration # 10     ecut=    50.00 Ry     beta= 0.70
     Davidson diagonalization with overlap
     ethr =  7.22E-10,  avg # of iterations =  1.2

     total cpu time spent up to now is       78.6 secs

     total energy              =    -653.71254062 Ry
     estimated scf accuracy    <       0.00000007 Ry

     iteration # 11     ecut=    50.00 Ry     beta= 0.70
     Davidson diagonalization with overlap
     ethr =  2.33E-10,  avg # of iterations =  1.0

     total cpu time spent up to now is       84.2 secs

     total energy              =    -653.71254062 Ry
     estimated scf accuracy    <       0.00000003 Ry

     iteration # 12     ecut=    50.00 Ry     beta= 0.70
     Davidson diagonalization with overlap
     ethr =  9.32E-11,  avg # of iterations =  1.0

     total cpu time spent up to now is       90.8 secs

     End of self-consistent calculation

          k = 0.0000 0.0000 0.0000 (   949 PWs)   bands (ev):

   -69.3298 -69.2040 -35.5656 -35.5656 -35.5656 -35.2825 -35.2825 -35.2825
     9.1172  13.4914  13.4914  15.9809  15.9809  15.9809  17.4915  17.4915
    18.4069  18.4069  18.4069  27.0931

          k = 0.0000 0.0000 0.0909 (   944 PWs)   bands (ev):

   -69.3269 -69.2061 -35.5642 -35.5591 -35.5591 -35.2932 -35.2876 -35.2876
     9.2849  13.5641  13.5726  15.9775  15.9775  16.0283  17.4096  17.5188
    18.2530  18.2530  18.3552  26.0473

          k = 0.0000 0.0000 0.1818 (   952 PWs)   bands (ev):

   -69.3185 -69.2126 -35.5604 -35.5416 -35.5416 -35.3240 -35.3038 -35.3038
     9.7765  13.7308  13.7958  15.9705  15.9705  16.1631  17.1658  17.6031
    17.8624  17.8624  18.2050  23.9956

          k = 0.0000 0.0000 0.2727 (   944 PWs)   bands (ev):

   -69.3055 -69.2230 -35.5497 -35.5131 -35.5131 -35.3681 -35.3294 -35.3294
    10.5565  13.9056  14.1631  15.9927  15.9927  16.3769  16.7825  17.3824
    17.3824  17.7298  17.9719  21.9006

          k = 0.0000 0.0000 0.3636 (   940 PWs)   bands (ev):

   -69.2892 -69.2369 -35.5323 -35.4778 -35.4778 -35.4169 -35.3620 -35.3620
    11.5503  13.8850  14.6333  16.0784  16.0784  16.2943  16.6593  16.9190
    16.9190  17.6741  17.9203  20.1157

          k = 0.0000 0.0000 0.4545 (   936 PWs)   bands (ev):

   -69.2713 -69.2534 -35.5034 -35.4638 -35.4389 -35.4389 -35.3994 -35.3994
    12.6069  13.4675  15.1714  15.7408  16.2535  16.2535  16.5333  16.5333
    16.9878  17.3382  18.2373  18.8897

          k = 0.0000 0.0909 0.0909 (   941 PWs)   bands (ev):

   -69.3241 -69.2082 -35.5737 -35.5529 -35.5430 -35.3143 -35.2926 -35.2823
     9.4506  13.6404  13.6413  15.8850  15.9629  16.1635  17.3977  17.4952
    17.9948  18.0992  18.4293  26.1224

          k = 0.0000 0.0909 0.1818 (   947 PWs)   bands (ev):

   -69.3160 -69.2144 -35.5786 -35.5360 -35.5176 -35.3524 -35.3083 -35.2898
     9.9351  13.8068  13.8573  15.8121  15.9349  16.3608  17.2099  17.5578
    17.5637  17.7215  18.3741  24.2134

          k = 0.0000 0.0909 0.2727 (   941 PWs)   bands (ev):

   -69.3034 -69.2243 -35.5742 -35.5095 -35.4856 -35.3997 -35.3326 -35.3087
    10.7023  13.9727  14.1984  15.7893  15.9157  16.6175  16.9013  17.0749
    17.2776  17.6999  18.1932  22.0969

          k = 0.0000 0.0909 0.3636 (   939 PWs)   bands (ev):

   -69.2878 -69.2376 -35.5604 -35.4755 -35.4496 -35.4495 -35.3636 -35.3375
    11.6719  13.9435  14.6352  15.8442  15.8620  16.5858  16.6265  16.8929
    16.9234  17.8948  17.9240  20.2678

          k = 0.0000 0.0909 0.4545 (   940 PWs)   bands (ev):

   -69.2706 -69.2534 -35.5347 -35.4963 -35.4384 -35.4112 -35.3994 -35.3722
    12.6940  13.5231  15.1216  15.5891  15.9973  16.2528  16.5006  16.6357
    17.2620  17.6011  18.2350  18.9574

          k = 0.0000 0.1818 0.1818 (   945 PWs)   bands (ev):

   -69.3087 -69.2196 -35.5967 -35.5209 -35.4823 -35.3992 -35.3217 -35.2833
    10.3969  13.9485  14.0693  15.6296  15.8630  16.6631  17.0707  17.2526
    17.3913  17.5135  18.4896  24.2377

          k = 0.0000 0.1818 0.2727 (   938 PWs)   bands (ev):

   -69.2975 -69.2282 -35.6050 -35.4971 -35.4516 -35.4444 -35.3420 -35.2899
    11.1169  14.0572  14.4012  15.5204  15.8000  16.5776  17.0013  17.0564
    17.1200  17.6133  18.4516  22.4859

          k = 0.0000 0.1818 0.3636 (   936 PWs)   bands (ev):

   -69.2836 -69.2397 -35.6008 -35.5037 -35.4677 -35.4062 -35.3692 -35.3082
    12.0010  13.9857  14.7874  15.4989  15.7189  16.1409  16.8757  16.9550
    17.3533  17.8153  18.2811  20.6047

          k = 0.0000 0.1818 0.4545 (   944 PWs)   bands (ev):

   -69.2685 -69.2534 -35.5831 -35.5497 -35.4346 -35.4012 -35.3691 -35.3355
    12.8917  13.5961  15.1852  15.5189  15.5901  15.8053  16.8578  16.8839
    17.6984  18.0176  18.2226  19.1205

          k = 0.0000 0.2727 0.2727 (   943 PWs)   bands (ev):

   -69.2885 -69.2345 -35.6264 -35.5074 -35.4782 -35.4040 -35.3581 -35.2838
    11.7334  14.0202  14.7814  15.3166  15.7698  16.0936  16.9072  17.2623
    17.3946  17.5585  18.5712  22.2347

          k = 0.0000 0.2727 0.3636 (   945 PWs)   bands (ev):

   -69.2774 -69.2432 -35.6338 -35.5596 -35.4553 -35.3790 -35.3660 -35.2900
    12.4306  13.8443  15.2152  15.2163  15.6844  15.8378  16.9375  17.2433
    17.6969  17.7688  18.5364  20.8022

          k = 0.0000 0.2727 0.4545 (   944 PWs)   bands (ev):

   -69.2654 -69.2537 -35.6260 -35.6004 -35.4293 -35.4035 -35.3327 -35.3068
    13.0552  13.5247  15.2377  15.3978  15.6016  15.8339  17.0857  17.2069
    18.1034  18.1729  18.3703  19.2618

          k = 0.0000 0.3636 0.3636 (   946 PWs)   bands (ev):

   -69.2699 -69.2482 -35.6541 -35.6069 -35.4401 -35.3915 -35.3321 -35.2835
    12.8220  13.6098  15.0404  15.3230  15.7750  16.2836  17.0860  17.3914
    17.6265  18.1376  18.6417  20.3201

          k = 0.0000 0.3636 0.4545 (   949 PWs)   bands (ev):

   -69.2621 -69.2546 -35.6565 -35.6407 -35.4232 -35.4069 -35.3059 -35.2894
    13.1166  13.3662  14.9911  15.0880  16.2938  16.5788  17.2712  17.4015
    18.0186  18.4215  18.5995  19.1565

          k = 0.0000 0.4545 0.4545 (   948 PWs)   bands (ev):

   -69.2589 -69.2563 -35.6701 -35.6649 -35.4168 -35.4109 -35.2886 -35.2838
    13.1511  13.2304  14.8805  14.9113  17.0406  17.3804  17.4028  17.6520
    17.6720  18.5797  18.6241  18.6847

          k = 0.0909 0.0909 0.0909 (   949 PWs)   bands (ev):

   -69.3214 -69.2102 -35.5675 -35.5675 -35.5232 -35.3343 -35.2883 -35.2883
     9.6132  13.7093  13.7093  15.8668  15.8668  16.2935  17.4292  17.4292
    17.6509  18.2762  18.2762  26.4251

          k = 0.0909 0.0909 0.1818 (   943 PWs)   bands (ev):

   -69.3135 -69.2160 -35.5790 -35.5492 -35.4936 -35.3731 -35.3047 -35.2903
    10.0929  13.8853  13.9115  15.7600  15.8242  16.5330  17.1737  17.2524
    17.5293  17.8987  18.3167  24.4400

          k = 0.0909 0.0909 0.2727 (   934 PWs)   bands (ev):

   -69.3014 -69.2255 -35.5806 -35.5207 -35.4603 -35.4205 -35.3305 -35.3038
    10.8478  14.0569  14.2289  15.7205  15.7676  16.7060  16.8252  16.9839
    17.4419  17.6747  18.2059  22.3054

          k = 0.0909 0.0909 0.3636 (   941 PWs)   bands (ev):

   -69.2864 -69.2382 -35.5724 -35.4851 -35.4697 -35.4261 -35.3644 -35.3267
    11.7955  14.0185  14.6279  15.6733  15.7725  16.3402  16.7118  17.0152
    17.1505  17.8756  17.9876  20.4448

          k = 0.0909 0.0909 0.4545 (   938 PWs)   bands (ev):

   -69.2698 -69.2533 -35.5503 -35.5148 -35.4444 -35.4030 -35.3904 -35.3568
    12.7857  13.5927  15.0628  15.4491  15.9151  16.1077  16.5929  16.7151
    17.4581  17.7277  18.2630  19.0724

          k = 0.0909 0.1818 0.1818 (   941 PWs)   bands (ev):

   -69.3065 -69.2210 -35.5899 -35.5421 -35.4595 -35.4151 -35.3151 -35.2894
    10.5506  14.0337  14.1159  15.5978  15.7267  16.6678  16.8514  17.2923
    17.4865  17.7012  18.3395  24.5276

          k = 0.0909 0.1818 0.2727 (   942 PWs)   bands (ev):

   -69.2957 -69.2292 -35.6004 -35.5168 -35.4646 -35.4247 -35.3383 -35.2941
    11.2619  14.1602  14.4154  15.4797  15.6476  16.2202  17.1551  17.2153
    17.3348  17.6003  18.3173  22.7363

          k = 0.0909 0.1818 0.3636 (   939 PWs)   bands (ev):

   -69.2824 -69.2402 -35.5997 -35.5136 -35.4828 -35.3905 -35.3692 -35.3082
    12.1314  14.0933  14.7449  15.4222  15.6030  15.9350  16.9924  17.0497
    17.5457  17.8405  18.1744  20.8497

          k = 0.0909 0.1818 0.4545 (   941 PWs)   bands (ev):

   -69.2678 -69.2533 -35.5854 -35.5557 -35.4447 -35.4055 -35.3586 -35.3303
    13.0022  13.6937  15.0641  15.3081  15.6525  15.7758  16.9034  16.9168
    17.7513  17.9583  18.3915  19.3616

          k = 0.0909 0.2727 0.2727 (   947 PWs)   bands (ev):

   -69.2871 -69.2352 -35.6194 -35.5150 -35.4973 -35.3895 -35.3555 -35.2902
    11.8776  14.1268  14.7872  15.2779  15.6022  15.8122  17.1411  17.2885
    17.5572  17.6259  18.4026  22.5607

          k = 0.0909 0.2727 0.3636 (   943 PWs)   bands (ev):

   -69.2763 -69.2435 -35.6280 -35.5621 -35.4701 -35.3787 -35.3575 -35.2949
    12.5707  13.9532  15.1531  15.1771  15.5628  15.6652  17.0696  17.2562
    17.6635  18.0769  18.3470  21.1459

          k = 0.0909 0.2727 0.4545 (   939 PWs)   bands (ev):

   -69.2648 -69.2536 -35.6216 -35.5993 -35.4387 -35.4074 -35.3297 -35.3085
    13.1819  13.6395  15.1656  15.2271  15.6297  15.7338  17.1333  17.2063
    17.8680  18.1491  18.6704  19.6759

          k = 0.0909 0.3636 0.3636 (   943 PWs)   bands (ev):

   -69.2691 -69.2483 -35.6463 -35.6049 -35.4512 -35.3926 -35.3296 -35.2905
    12.9605  13.7197  15.0088  15.2355  15.7173  16.0267  17.1683  17.3983
    17.6292  18.3829  18.4958  20.7948

          k = 0.0909 0.3636 0.4545 (   941 PWs)   bands (ev):

   -69.2615 -69.2544 -35.6494 -35.6353 -35.4305 -35.4100 -35.3084 -35.2951
    13.2456  13.4815  14.9628  15.0386  16.1815  16.3512  17.3101  17.4033
    17.8106  18.1975  18.9970  19.8145

          k = 0.0909 0.4545 0.4545 (   954 PWs)   bands (ev):

   -69.2585 -69.2560 -35.6622 -35.6579 -35.4223 -35.4155 -35.2954 -35.2915
    13.2701  13.3445  14.8536  14.8825  16.8292  17.0271  17.4279  17.4686
    17.6731  17.9895  19.3100  19.6392

          k = 0.1818 0.1818 0.1818 (   943 PWs)   bands (ev):

   -69.3003 -69.2253 -35.5704 -35.5704 -35.4520 -35.4255 -35.3072 -35.3072
    10.9943  14.2493  14.2493  15.5084  15.5084  16.1355  17.2141  17.4034
    17.4034  17.9796  17.9796  25.3010

          k = 0.1818 0.1818 0.2727 (   939 PWs)   bands (ev):

   -69.2906 -69.2323 -35.5912 -35.5399 -35.4960 -35.3934 -35.3346 -35.3040
    11.6771  14.4415  14.4496  15.3796  15.3930  15.7193  17.2802  17.5471
    17.5781  17.6435  18.0848  23.3188

          k = 0.1818 0.1818 0.3636 (   937 PWs)   bands (ev):

   -69.2787 -69.2417 -35.5998 -35.5385 -35.5013 -35.3705 -35.3642 -35.3094
    12.4890  14.3307  14.6824  15.2569  15.3882  15.6120  17.1485  17.2564
    17.6775  18.0375  18.1457  21.4057

          k = 0.1818 0.1818 0.4545 (   937 PWs)   bands (ev):

   -69.2658 -69.2532 -35.5946 -35.5729 -35.4580 -35.4128 -35.3401 -35.3210
    13.2735  13.8978  14.9063  15.0997  15.5287  15.6332  17.0563  17.0780
    17.7876  17.9098  18.8322  19.8787

          k = 0.1818 0.2727 0.2727 (   944 PWs)   bands (ev):

   -69.2828 -69.2374 -35.5982 -35.5345 -35.5316 -35.3649 -35.3484 -35.3096
    12.2885  14.4270  14.8087  15.1849  15.2955  15.3419  17.3779  17.4823
    17.5387  18.0464  18.1171  23.3925

          k = 0.1818 0.2727 0.3636 (   953 PWs)   bands (ev):

   -69.2733 -69.2445 -35.6103 -35.5709 -35.4995 -35.3795 -35.3428 -35.3112
    12.9560  14.2477  14.9649  15.0700  15.3192  15.3632  17.3184  17.3309
    17.6437  18.0221  18.6530  21.9289

          k = 0.1818 0.2727 0.4545 (   945 PWs)   bands (ev):

   -69.2631 -69.2532 -35.6111 -35.5979 -35.4593 -35.4177 -35.3259 -35.3156
    13.5153  13.9295  14.9694  15.0044  15.4778  15.5363  17.2609  17.2749
    17.7705  17.9095  19.3645  20.4405

          k = 0.1818 0.3636 0.3636 (   955 PWs)   bands (ev):

   -69.2668 -69.2485 -35.6235 -35.6008 -35.4792 -35.3963 -35.3274 -35.3116
    13.3500  14.0078  14.9328  15.0425  15.5362  15.5518  17.3486  17.4475
    17.6317  18.0041  19.2124  21.8053

          k = 0.1818 0.3636 0.4545 (   957 PWs)   bands (ev):

   -69.2601 -69.2538 -35.6288 -35.6215 -35.4509 -35.4215 -35.3177 -35.3135
    13.5912  13.7866  14.8797  14.9227  15.8554  15.8721  17.4049  17.4433
    17.7183  17.8819  19.9028  20.8501

          k = 0.1818 0.4545 0.4545 (   954 PWs)   bands (ev):

   -69.2573 -69.2551 -35.6384 -35.6360 -35.4381 -35.4276 -35.3139 -35.3128
    13.6052  13.6609  14.7984  14.8176  16.2909  16.2988  17.4935  17.5132
    17.6831  17.7714  20.4367  20.8559

          k = 0.2727 0.2727 0.2727 (   952 PWs)   bands (ev):

   -69.2765 -69.2411 -35.5652 -35.5652 -35.5601 -35.3458 -35.3400 -35.3400
    12.8853  14.8257  14.8257  14.8924  15.0677  15.0677  17.5028  17.5028
    17.7119  17.7119  18.6827  24.5173

          k = 0.2727 0.2727 0.3636 (   953 PWs)   bands (ev):

   -69.2688 -69.2463 -35.5895 -35.5832 -35.5225 -35.3799 -35.3334 -35.3328
    13.4904  14.4926  14.8365  14.9605  15.0465  15.2207  17.4536  17.5019
    17.6261  17.8081  19.3155  22.8063

          k = 0.2727 0.2727 0.4545 (   952 PWs)   bands (ev):

   -69.2607 -69.2530 -35.6009 -35.5987 -35.4752 -35.4262 -35.3278 -35.3275
    13.9060  14.1887  14.8490  14.8843  15.2542  15.3909  17.4113  17.4132
    17.7247  17.7937  20.1173  21.2646

          k = 0.2727 0.3636 0.3636 (   951 PWs)   bands (ev):

   -69.2634 -69.2492 -35.5950 -35.5878 -35.5118 -35.3958 -35.3448 -35.3306
    13.9210  14.3353  14.8483  14.9189  15.0820  15.3157  17.5352  17.5401
    17.6336  17.7678  20.0330  23.0550

          k = 0.2727 0.3636 0.4545 (   956 PWs)   bands (ev):

   -69.2580 -69.2532 -35.6014 -35.5980 -35.4745 -35.4318 -35.3413 -35.3344
    14.0759  14.1738  14.8074  14.8422  15.3740  15.4954  17.5246  17.5350
    17.6969  17.7493  20.8887  21.9928

          k = 0.2727 0.4545 0.4545 (   959 PWs)   bands (ev):

   -69.2557 -69.2540 -35.6032 -35.6010 -35.4585 -35.4419 -35.3481 -35.3434
    14.0768  14.0976  14.7355  14.7609  15.6805  15.7288  17.5827  17.5872
    17.6928  17.7198  21.6691  22.2286

          k = 0.3636 0.3636 0.3636 (   949 PWs)   bands (ev):

   -69.2596 -69.2506 -35.5892 -35.5423 -35.5423 -35.3878 -35.3878 -35.3410
    14.4202  14.4905  14.7933  14.7933  15.0772  15.0772  17.6324  17.6324
    17.6572  17.6572  20.9042  24.4687

          k = 0.3636 0.3636 0.4545 (   954 PWs)   bands (ev):

   -69.2559 -69.2528 -35.5809 -35.5653 -35.4907 -35.4382 -35.3742 -35.3570
    14.4008  14.4729  14.7994  14.8973  15.0781  15.2332  17.6223  17.6245
    17.6906  17.7074  21.8999  23.1241

          k = 0.3636 0.4545 0.4545 (   950 PWs)   bands (ev):

   -69.2542 -69.2531 -35.5637 -35.5536 -35.4797 -35.4503 -35.3931 -35.3802
    14.4772  14.5539  14.7242  14.8048  15.2197  15.2788  17.6613  17.6643
    17.7012  17.7087  22.9425  23.7331

          k = 0.4545 0.4545 0.4545 (   946 PWs)   bands (ev):

   -69.2531 -69.2527 -35.5264 -35.4998 -35.4998 -35.4456 -35.4456 -35.4184
    14.6548  14.7864  14.7864  14.9680  14.9680  14.9869  17.7057  17.7057
    17.7110  17.7110  24.2215  25.3548

     the Fermi energy is    17.5030 ev

!    total energy              =    -653.71254062 Ry
     total all-electron energy =     -5086.363959 Ry
     estimated scf accuracy    <          1.2E-09 Ry
     smearing contrib. (-TS)   =      -0.02070044 Ry
     internal energy E=F+TS    =    -653.69184018 Ry

     The total energy is F=E-TS. E is the sum of the following terms:
     one-electron contribution =    -224.70604000 Ry
     hartree contribution      =     131.37795178 Ry
     xc contribution           =     -54.52825460 Ry
     ewald contribution        =    -344.39297617 Ry
     one-center paw contrib.   =    -161.44252119 Ry

     convergence has been achieved in  12 iterations

     Forces acting on atoms (cartesian axes, Ry/au):

     atom    1 type  1   force =     0.00000000    0.00000000    0.00000000
     atom    2 type  1   force =     0.00000000    0.00000000    0.00000000

     Total force =     0.000000     Total SCF correction =     0.000000


     Computing stress (Cartesian axis) and pressure

          total   stress  (Ry/bohr**3)                   (kbar)     P=     -540.00
  -0.00367084   0.00000000   0.00000000         -540.00        0.00        0.00
   0.00000000  -0.00367084   0.00000000            0.00     -540.00        0.00
   0.00000000   0.00000000  -0.00367084            0.00        0.00     -540.00


     BFGS Geometry Optimization
     Energy error            =      0.0E+00 Ry
     Gradient error          =      0.0E+00 Ry/Bohr
     Cell gradient error     =      5.4E+02 kbar

     number of scf cycles    =   1
     number of bfgs steps    =   0

     enthalpy           new  =    -653.7125406242 Ry

     new trust radius        =       0.2309799088 bohr
ibrav =      1
 celldm(1) =      4.91383896
Input lattice vectors:
     0.90822892     0.00000000     0.00000000
     0.00000000     0.90822892     0.00000000
     0.00000000     0.00000000     0.90822892
New lattice vectors in INITIAL alat:
     0.90822892     0.00000000     0.00000000
     0.00000000     0.90822892     0.00000000
     0.00000000     0.00000000     0.90822892
New lattice vectors in NEW alat (for information only):
     1.00000000     0.00000000     0.00000000
     0.00000000     1.00000000     0.00000000
     0.00000000     0.00000000     1.00000000
Discrepancy in bohr =     0.000000    0.000000    0.000000
     new conv_thr            =       0.0000000100 Ry

     new unit-cell volume =    118.64864 a.u.^3 (    17.58191 Ang^3 )
     density =     10.54866 g/cm^3

CELL_PARAMETERS (alat=  5.41035287)
   0.908228924   0.000000000   0.000000000
   0.000000000   0.908228924   0.000000000
   0.000000000   0.000000000   0.908228924

ATOMIC_POSITIONS (crystal)
Fe1              0.0000000000        0.0000000000        0.0000000000
Fe1              0.5000000000        0.5000000000        0.5000000000



     Writing config-only to output data dir ./temp/fe-afm.save/ :
     XML data file
     NEW-OLD atomic charge density approx. for the potential

     Check: negative core charge=   -0.000002

     total cpu time spent up to now is       98.2 secs

     Self-consistent Calculation

     iteration #  1     ecut=    50.00 Ry     beta= 0.70
     Davidson diagonalization with overlap
     ethr =  1.00E-06,  avg # of iterations =  8.6

     total cpu time spent up to now is      122.4 secs

     total energy              =    -653.70148355 Ry
     estimated scf accuracy    <       0.09363987 Ry

     iteration #  2     ecut=    50.00 Ry     beta= 0.70
     Davidson diagonalization with overlap
     ethr =  2.93E-04,  avg # of iterations =  3.6

     total cpu time spent up to now is      132.8 secs

     total energy              =    -653.72645022 Ry
     estimated scf accuracy    <       0.34890046 Ry

     iteration #  3     ecut=    50.00 Ry     beta= 0.70
     Davidson diagonalization with overlap
     ethr =  2.93E-04,  avg # of iterations =  2.9

     total cpu time spent up to now is      140.2 secs

     total energy              =    -653.75757882 Ry
     estimated scf accuracy    <       0.01918472 Ry

     iteration #  4     ecut=    50.00 Ry     beta= 0.70
     Davidson diagonalization with overlap
     ethr =  6.00E-05,  avg # of iterations =  1.7

     total cpu time spent up to now is      145.8 secs

     total energy              =    -653.72832997 Ry
     estimated scf accuracy    <       0.01424111 Ry

     iteration #  5     ecut=    50.00 Ry     beta= 0.70
     Davidson diagonalization with overlap
     ethr =  4.45E-05,  avg # of iterations =  2.0

     total cpu time spent up to now is      151.7 secs

     total energy              =    -653.72694172 Ry
     estimated scf accuracy    <       0.00037698 Ry

     iteration #  6     ecut=    50.00 Ry     beta= 0.70
     Davidson diagonalization with overlap
     ethr =  1.18E-06,  avg # of iterations =  2.9

     total cpu time spent up to now is      158.3 secs

     total energy              =    -653.72706437 Ry
     estimated scf accuracy    <       0.00002627 Ry

     iteration #  7     ecut=    50.00 Ry     beta= 0.70
     Davidson diagonalization with overlap
     ethr =  8.21E-08,  avg # of iterations =  3.0

     total cpu time spent up to now is      165.5 secs

     total energy              =    -653.72697299 Ry
     estimated scf accuracy    <       0.00001543 Ry

     iteration #  8     ecut=    50.00 Ry     beta= 0.70
     Davidson diagonalization with overlap
     ethr =  4.82E-08,  avg # of iterations =  2.0

     total cpu time spent up to now is      171.3 secs

     total energy              =    -653.72697363 Ry
     estimated scf accuracy    <       0.00000129 Ry

     iteration #  9     ecut=    50.00 Ry     beta= 0.70
     Davidson diagonalization with overlap
     ethr =  4.03E-09,  avg # of iterations =  2.4

     total cpu time spent up to now is      177.1 secs

     total energy              =    -653.72697385 Ry
     estimated scf accuracy    <       0.00000001 Ry

     iteration # 10     ecut=    50.00 Ry     beta= 0.70
     Davidson diagonalization with overlap
     ethr =  3.38E-11,  avg # of iterations =  3.7

     total cpu time spent up to now is      184.6 secs

     End of self-consistent calculation

          k = 0.0000 0.0000 0.0000 (   949 PWs)   bands (ev):

   -62.5111 -62.1083 -28.8002 -28.8002 -28.8002 -28.1008 -28.1008 -28.1008
    14.7108  18.6901  18.6901  22.4850  22.4850  22.4850  24.7213  24.7213
    26.1910  26.1910  26.1910  36.7096

          k = 0.0000 0.0000 0.1001 (   944 PWs)   bands (ev):

   -62.5017 -62.1149 -28.8004 -28.7851 -28.7851 -28.1305 -28.1141 -28.1141
    14.9242  18.7973  18.8085  22.4781  22.4781  22.5539  24.5854  24.7737
    25.9485  25.9485  26.1093  35.5859

          k = 0.0000 0.0000 0.2002 (   952 PWs)   bands (ev):

   -62.4745 -62.1350 -28.7984 -28.7416 -28.7416 -28.2124 -28.1532 -28.1532
    15.5427  19.1136  19.1229  22.4728  22.4728  22.7565  24.1911  24.9234
    25.3435  25.3435  25.8724  33.2829

          k = 0.0000 0.0000 0.3003 (   944 PWs)   bands (ev):

   -62.4323 -62.1674 -28.7845 -28.6731 -28.6731 -28.3302 -28.2154 -28.2154
    16.4987  19.5067  19.6227  22.5085  22.5085  23.0798  23.5772  24.6029
    24.6029  25.1563  25.5041  30.8308

          k = 0.0000 0.0000 0.4004 (   940 PWs)   bands (ev):

   -62.3795 -62.2113 -28.7489 -28.5865 -28.5865 -28.4610 -28.2963 -28.2963
    17.6590  19.7399  20.2958  22.6344  22.6344  22.8052  23.5027  23.8963
    23.8963  25.0398  25.4860  28.6540

          k = 0.0000 0.0000 0.5005 (   936 PWs)   bands (ev):

   -62.3216 -62.2639 -28.6823 -28.5837 -28.4894 -28.4894 -28.3900 -28.3900
    18.7858  19.5455  21.0907  21.9505  22.8943  22.8943  23.3148  23.3148
    23.9958  24.5222  26.0245  27.0188

          k = 0.0000 0.1001 0.1001 (   941 PWs)   bands (ev):

   -62.4925 -62.1213 -28.8253 -28.7705 -28.7465 -28.1845 -28.1267 -28.1014
    15.1331  18.9018  18.9257  22.3349  22.4587  22.7587  24.5677  24.7335
    25.5462  25.7103  26.2242  35.6755

          k = 0.0000 0.1001 0.2002 (   947 PWs)   bands (ev):

   -62.4662 -62.1403 -28.8431 -28.7285 -28.6860 -28.2836 -28.1640 -28.1195
    15.7377  19.1900  19.2541  22.2218  22.4178  23.0666  24.2689  24.8604
    24.8727  25.1265  26.1362  33.5557

          k = 0.0000 0.1001 0.3003 (   941 PWs)   bands (ev):

   -62.4254 -62.1713 -28.8424 -28.6629 -28.6093 -28.4088 -28.2234 -28.1678
    16.6666  19.5777  19.7263  22.1896  22.3788  23.4518  23.7792  24.1316
    24.4437  25.1015  25.8494  31.0744

          k = 0.0000 0.1001 0.4004 (   939 PWs)   bands (ev):

   -62.3745 -62.2133 -28.8158 -28.5795 -28.5412 -28.5201 -28.3007 -28.2397
    17.7816  19.8001  20.3449  22.2564  22.2710  23.3193  23.4461  23.8590
    23.9068  25.4290  25.4417  28.8362

          k = 0.0000 0.1001 0.5005 (   940 PWs)   bands (ev):

   -62.3188 -62.2637 -28.7560 -28.6619 -28.4863 -28.4238 -28.3905 -28.3274
    18.8530  19.5872  21.0640  21.7779  22.4981  22.8906  23.2419  23.4635
    24.4114  24.9330  26.0180  27.1031

          k = 0.0000 0.2002 0.2002 (   945 PWs)   bands (ev):

   -62.4425 -62.1564 -28.8930 -28.6910 -28.6017 -28.4056 -28.1961 -28.1032
    16.2953  19.3887  19.6232  21.9464  22.3080  23.5278  24.1225  24.3560
    24.6229  24.7794  26.3139  33.5292

          k = 0.0000 0.2002 0.3003 (   938 PWs)   bands (ev):

   -62.4058 -62.1829 -28.9217 -28.6326 -28.5442 -28.5100 -28.2471 -28.1206
    17.1282  19.6305  20.1400  21.7741  22.2187  23.3682  24.0317  24.1153
    24.1550  24.9596  26.2500  31.5106

          k = 0.0000 0.2002 0.4004 (   936 PWs)   bands (ev):

   -62.3605 -62.2191 -28.9189 -28.6804 -28.5590 -28.4149 -28.3142 -28.1672
    18.0779  19.7370  20.7143  21.7431  22.1099  22.7099  23.8278  23.9121
    24.5588  25.3111  25.9835  29.2222

          k = 0.0000 0.2002 0.5005 (   944 PWs)   bands (ev):

   -62.3114 -62.2629 -28.8778 -28.7962 -28.4766 -28.3928 -28.3217 -28.2367
    18.9331  19.5160  21.2966  21.8072  21.8818  22.2052  23.7905  23.8277
    25.0853  25.5760  25.9860  27.2958

          k = 0.0000 0.3003 0.3003 (   943 PWs)   bands (ev):

   -62.3761 -62.2024 -28.9812 -28.6894 -28.5858 -28.4099 -28.2857 -28.1053
    17.7572  19.6139  20.7555  21.4652  22.2523  22.6336  23.8878  24.4109
    24.6282  24.8694  26.4325  31.0966

          k = 0.0000 0.3003 0.4004 (   945 PWs)   bands (ev):

   -62.3398 -62.2294 -29.0068 -28.8229 -28.5273 -28.3368 -28.3154 -28.1217
    18.3722  19.4770  21.3134  21.4301  22.0229  22.4556  23.9178  24.3894
    25.1136  25.1995  26.3773  29.3585

          k = 0.0000 0.3003 0.5005 (   944 PWs)   bands (ev):

   -62.3007 -62.2628 -28.9900 -28.9270 -28.4624 -28.3972 -28.2321 -28.1656
    18.8567  19.2179  21.3491  21.5867  22.0348  22.4374  24.1405  24.3347
    25.7105  25.8835  26.1196  27.4095

          k = 0.0000 0.4004 0.4004 (   946 PWs)   bands (ev):

   -62.3147 -62.2447 -29.0617 -28.9455 -28.4883 -28.3672 -28.2303 -28.1069
    18.5591  19.1660  21.0472  21.4785  22.2810  23.2449  24.1469  24.6371
    24.9843  25.7628  26.5427  28.6432

          k = 0.0000 0.4004 0.5005 (   949 PWs)   bands (ev):

   -62.2889 -62.2648 -29.0716 -29.0320 -28.4460 -28.4047 -28.1645 -28.1223
    18.7031  18.8961  20.9786  21.1231  23.0704  23.5731  24.4408  24.6561
    25.6141  26.2026  26.4757  27.1500

          k = 0.0000 0.5005 0.5005 (   948 PWs)   bands (ev):

   -62.2780 -62.2697 -29.1092 -29.0957 -28.4297 -28.4154 -28.1223 -28.1081
    18.6211  18.6823  20.8087  20.8572  24.1445  24.6522  24.6527  25.0447
    25.0686  26.3008  26.5127  26.6088

          k = 0.1001 0.1001 0.1001 (   949 PWs)   bands (ev):

   -62.4839 -62.1274 -28.8098 -28.8098 -28.6962 -28.2345 -28.1154 -28.1154
    15.3383  19.0231  19.0231  22.3094  22.3094  22.9677  24.6310  24.6310
    25.0195  25.9845  25.9845  36.0858

          k = 0.1001 0.1001 0.2002 (   943 PWs)   bands (ev):

   -62.4582 -62.1454 -28.8448 -28.7647 -28.6256 -28.3363 -28.1558 -28.1216
    15.9316  19.3084  19.3428  22.1438  22.2420  23.3320  24.2873  24.3394
    24.8037  25.3938  26.0453  33.8485

          k = 0.1001 0.1001 0.3003 (   934 PWs)   bands (ev):

   -62.4187 -62.1749 -28.8592 -28.6942 -28.5456 -28.4621 -28.2201 -28.1558
    16.8373  19.7202  19.7612  22.0849  22.1434  23.5741  23.7697  23.9178
    24.6873  25.0554  25.8692  31.3405

          k = 0.1001 0.1001 0.4004 (   941 PWs)   bands (ev):

   -62.3697 -62.2151 -28.8450 -28.6049 -28.5923 -28.4598 -28.3040 -28.2130
    17.9136  19.9100  20.3431  21.9681  22.1742  23.0237  23.5116  24.0423
    24.2551  25.4106  25.5355  29.0622

          k = 0.1001 0.1001 0.5005 (   938 PWs)   bands (ev):

   -62.3162 -62.2632 -28.7948 -28.7081 -28.5043 -28.4011 -28.3715 -28.2871
    18.9394  19.6620  20.9886  21.5826  22.3983  22.6740  23.3635  23.5699
    24.7184  25.1337  26.0549  27.2519

          k = 0.1001 0.2002 0.2002 (   941 PWs)   bands (ev):

   -62.4353 -62.1607 -28.8762 -28.7492 -28.5421 -28.4465 -28.1820 -28.1183
    16.4848  19.5253  19.6907  21.8962  22.0939  23.5231  23.8115  24.4233
    24.7359  25.0906  26.0763  33.9164

          k = 0.1001 0.2002 0.3003 (   942 PWs)   bands (ev):

   -62.3999 -62.1860 -28.9097 -28.6866 -28.5764 -28.4565 -28.2393 -28.1314
    17.3072  19.7863  20.1677  21.7139  21.9829  22.8497  24.2147  24.3614
    24.5310  24.9358  26.0436  31.8474

          k = 0.1001 0.2002 0.4004 (   939 PWs)   bands (ev):

   -62.3562 -62.2204 -28.9156 -28.7042 -28.6018 -28.3719 -28.3166 -28.1673
    18.2363  19.9038  20.6477  21.6171  21.9457  22.4111  23.9633  24.0853
    24.8610  25.3503  25.8283  29.5491

          k = 0.1001 0.2002 0.5005 (   941 PWs)   bands (ev):

   -62.3088 -62.2624 -28.8837 -28.8112 -28.5059 -28.4079 -28.2925 -28.2226
    19.0678  19.6557  21.0960  21.4436  22.0332  22.1888  23.8405  23.8740
    25.1830  25.5028  26.2156  27.6143

          k = 0.1001 0.3003 0.3003 (   947 PWs)   bands (ev):

   -62.3712 -62.2045 -28.9628 -28.7072 -28.6383 -28.3695 -28.2811 -28.1220
    17.9450  19.7752  20.7707  21.4129  21.9820  22.2322  24.2336  24.4450
    24.8632  24.9937  26.1726  31.5311

          k = 0.1001 0.3003 0.4004 (   943 PWs)   bands (ev):

   -62.3359 -62.2302 -28.9906 -28.8293 -28.5691 -28.3397 -28.2904 -28.1352
    18.5564  19.6368  21.2546  21.3352  21.8592  22.1768  24.1189  24.3942
    25.0519  25.6782  26.0944  29.8268

          k = 0.1001 0.3003 0.5005 (   939 PWs)   bands (ev):

   -62.2983 -62.2620 -28.9792 -28.9240 -28.4904 -28.4114 -28.2226 -28.1698
    19.0230  19.3738  21.2436  21.3580  22.0724  22.2961  24.2104  24.3229
    25.3833  25.8005  26.5775  27.9725

          k = 0.1001 0.4004 0.4004 (   943 PWs)   bands (ev):

   -62.3117 -62.2446 -29.0416 -28.9401 -28.5213 -28.3736 -28.2222 -28.1254
    18.7442  19.3204  21.0080  21.3529  22.2074  22.8425  24.2723  24.6325
    24.9897  26.1495  26.2976  29.2859

          k = 0.1001 0.4004 0.5005 (   941 PWs)   bands (ev):

   -62.2867 -62.2637 -29.0531 -29.0184 -28.4684 -28.4173 -28.1705 -28.1376
    18.8739  19.0542  20.9364  21.0558  22.9258  23.2661  24.4954  24.6446
    25.2917  25.8768  27.0100  28.0650

          k = 0.1001 0.5005 0.5005 (   954 PWs)   bands (ev):

   -62.2765 -62.2684 -29.0883 -29.0766 -28.4465 -28.4289 -28.1386 -28.1277
    18.7878  18.8440  20.7808  20.8232  23.8677  24.2156  24.6919  24.7645
    25.0741  25.5580  27.4067  27.7983

          k = 0.2002 0.2002 0.2002 (   943 PWs)   bands (ev):

   -62.4146 -62.1736 -28.8273 -28.8273 -28.5415 -28.4570 -28.1627 -28.1627
    17.0214  19.8840  19.8840  21.7616  21.7616  22.7341  24.3718  24.6083
    24.6083  25.5169  25.5169  34.9201

          k = 0.2002 0.2002 0.3003 (   939 PWs)   bands (ev):

   -62.3828 -62.1951 -28.8878 -28.7507 -28.6562 -28.3769 -28.2330 -28.1571
    17.8021  20.1751  20.2704  21.5751  21.5780  22.1148  24.4148  24.8516
    24.8971  25.0223  25.6849  32.5874

          k = 0.2002 0.2002 0.4004 (   937 PWs)   bands (ev):

   -62.3438 -62.2247 -28.9173 -28.7672 -28.6534 -28.3247 -28.3054 -28.1699
    18.6423  20.2916  20.5174  21.3715  21.6376  21.9395  24.2058  24.3979
    25.0775  25.6237  25.7922  30.2610

          k = 0.2002 0.2002 0.5005 (   937 PWs)   bands (ev):

   -62.3018 -62.2611 -28.9074 -28.8553 -28.5438 -28.4311 -28.2457 -28.1997
    19.3529  19.9027  20.8528  21.1377  21.8853  22.0170  24.0713  24.1157
    25.2548  25.4398  26.8269  28.2986

          k = 0.2002 0.3003 0.3003 (   944 PWs)   bands (ev):

   -62.3570 -62.2107 -28.9089 -28.7553 -28.7330 -28.3065 -28.2681 -28.1715
    18.4690  20.2237  20.8067  21.2784  21.4817  21.5482  24.5831  24.7503
    24.8386  25.6297  25.7444  32.6013

          k = 0.2002 0.3003 0.4004 (   953 PWs)   bands (ev):

   -62.3256 -62.2327 -28.9453 -28.8493 -28.6514 -28.3456 -28.2511 -28.1754
    19.0644  20.0648  21.0308  21.1148  21.6156  21.6195  24.4999  24.5156
    25.0263  25.6055  26.5448  30.8541

          k = 0.2002 0.3003 0.5005 (   945 PWs)   bands (ev):

   -62.2922 -62.2603 -28.9520 -28.9190 -28.5492 -28.4434 -28.2111 -28.1866
    19.4586  19.7703  20.9978  21.0263  21.9204  21.9546  24.4053  24.4260
    25.2338  25.4431  27.5630  28.9982

          k = 0.2002 0.4004 0.4004 (   955 PWs)   bands (ev):

   -62.3038 -62.2448 -28.9832 -28.9270 -28.5995 -28.3872 -28.2140 -28.1797
    19.2666  19.7307  20.9111  21.0905  21.9881  22.0833  24.5542  24.7131
    25.0008  25.5843  27.3417  30.5945

          k = 0.2002 0.4004 0.5005 (   957 PWs)   bands (ev):

   -62.2816 -62.2613 -28.9999 -28.9810 -28.5258 -28.4503 -28.1928 -28.1837
    19.3456  19.4803  20.8393  20.9112  22.5102  22.5618  24.6451  24.7099
    25.1500  25.4006  28.2603  29.4346

          k = 0.2002 0.5005 0.5005 (   954 PWs)   bands (ev):

   -62.2720 -62.2650 -29.0271 -29.0209 -28.4919 -28.4645 -28.1863 -28.1846
    19.2523  19.2905  20.7157  20.7475  23.1375  23.1901  24.7960  24.8302
    25.0882  25.2270  28.8831  29.3660

          k = 0.3003 0.3003 0.3003 (   952 PWs)   bands (ev):

   -62.3356 -62.2218 -28.8245 -28.8245 -28.8195 -28.2572 -28.2500 -28.2500
    19.1782  20.8403  20.8403  20.9153  21.1138  21.1138  24.7864  24.7864
    25.1191  25.1191  26.5954  33.9953

          k = 0.3003 0.3003 0.4004 (   953 PWs)   bands (ev):

   -62.3101 -62.2377 -28.8924 -28.8802 -28.7167 -28.3523 -28.2319 -28.2270
    19.7132  20.4013  20.8542  20.9730  21.1766  21.4560  24.7116  24.7848
    24.9974  25.2795  27.5025  31.9452

          k = 0.3003 0.3003 0.5005 (   952 PWs)   bands (ev):

   -62.2835 -62.2586 -28.9254 -28.9199 -28.5953 -28.4704 -28.2183 -28.2150
    19.8966  20.0713  20.8584  20.8880  21.6066  21.7732  24.6446  24.6449
    25.1635  25.2683  28.5935  30.0602

          k = 0.3003 0.4004 0.4004 (   951 PWs)   bands (ev):

   -62.2920 -62.2460 -28.9117 -28.8915 -28.6910 -28.3926 -28.2658 -28.2228
    20.0237  20.1638  20.8088  20.9738  21.3612  21.6563  24.8417  24.8547
    25.0073  25.2155  28.4841  32.1561

          k = 0.3003 0.4004 0.5005 (   956 PWs)   bands (ev):

   -62.2741 -62.2583 -28.9288 -28.9204 -28.5946 -28.4853 -28.2559 -28.2355
    19.9763  19.9908  20.7695  20.8478  21.8492  21.9712  24.8339  24.8501
    25.1143  25.1940  29.5772  30.9042

          k = 0.3003 0.5005 0.5005 (   959 PWs)   bands (ev):

   -62.2662 -62.2606 -28.9359 -28.9312 -28.5526 -28.5079 -28.2753 -28.2625
    19.8934  19.9032  20.6623  20.7063  22.2882  22.3281  24.9311  24.9441
    25.1059  25.1435  30.4785  31.0936

          k = 0.4004 0.4004 0.4004 (   949 PWs)   bands (ev):

   -62.2787 -62.2497 -28.8970 -28.7747 -28.7747 -28.3774 -28.3774 -28.2520
    20.2425  20.7612  20.7612  20.8644  21.2965  21.2965  25.0024  25.0024
    25.0428  25.0428  29.6357  33.8678

          k = 0.4004 0.4004 0.5005 (   954 PWs)   bands (ev):

   -62.2664 -62.2564 -28.8761 -28.8373 -28.6425 -28.5065 -28.3418 -28.2955
    20.2545  20.4223  20.8168  20.9990  21.4278  21.5785  24.9897  24.9899
    25.1053  25.1270  30.8630  32.2953

          k = 0.4004 0.5005 0.5005 (   950 PWs)   bands (ev):

   -62.2602 -62.2568 -28.8342 -28.8089 -28.6141 -28.5378 -28.3926 -28.3590
    20.3786  20.5434  20.6810  20.8548  21.5930  21.6445  25.0554  25.0573
    25.1211  25.1284  32.0835  32.9390

          k = 0.5005 0.5005 0.5005 (   946 PWs)   bands (ev):

   -62.2563 -62.2549 -28.7385 -28.6705 -28.6705 -28.5281 -28.5281 -28.4591
    20.6226  20.8277  20.8277  21.1423  21.1423  21.2294  25.1292  25.1292
    25.1296  25.1296  33.6104  34.8734

     the Fermi energy is    24.8049 ev

!    total energy              =    -653.72697386 Ry
     total all-electron energy =     -5086.378392 Ry
     estimated scf accuracy    <          1.6E-09 Ry
     smearing contrib. (-TS)   =      -0.01349257 Ry
     internal energy E=F+TS    =    -653.71348129 Ry

     The total energy is F=E-TS. E is the sum of the following terms:
     one-electron contribution =    -170.39495861 Ry
     hartree contribution      =     112.41861371 Ry
     xc contribution           =     -55.09867290 Ry
     ewald contribution        =    -379.19181721 Ry
     one-center paw contrib.   =    -161.44664627 Ry

     convergence has been achieved in  10 iterations

     Forces acting on atoms (cartesian axes, Ry/au):

     atom    1 type  1   force =     0.00000000    0.00000000    0.00000000
     atom    2 type  1   force =     0.00000000    0.00000000    0.00000000

     Total force =     0.000000     Total SCF correction =     0.000000


     Computing stress (Cartesian axis) and pressure

          total   stress  (Ry/bohr**3)                   (kbar)     P=      572.99
   0.00389513   0.00000000   0.00000000          572.99        0.00        0.00
   0.00000000   0.00389513   0.00000000            0.00      572.99        0.00
   0.00000000   0.00000000   0.00389513            0.00        0.00      572.99

     Energy error            =      1.4E-02 Ry
     Gradient error          =      0.0E+00 Ry/Bohr
     Cell gradient error     =      5.7E+02 kbar

     number of scf cycles    =   2
     number of bfgs steps    =   1

     enthalpy           old  =    -653.7125406242 Ry
     enthalpy           new  =    -653.7269738575 Ry

     CASE: enthalpy          _new < enthalpy          _old

     new trust radius        =       0.1027430760 bohr
ibrav =      1
 celldm(1) =      5.14558489
Input lattice vectors:
     0.95106272     0.00000000     0.00000000
     0.00000000     0.95106272     0.00000000
     0.00000000     0.00000000     0.95106272
New lattice vectors in INITIAL alat:
     0.95106272     0.00000000     0.00000000
     0.00000000     0.95106272     0.00000000
     0.00000000     0.00000000     0.95106272
New lattice vectors in NEW alat (for information only):
     1.00000000     0.00000000     0.00000000
     0.00000000     1.00000000     0.00000000
     0.00000000     0.00000000     1.00000000
Discrepancy in bohr =     0.000000    0.000000    0.000000
     new conv_thr            =            1.0E-10 Ry

     new unit-cell volume =    136.23988 a.u.^3 (    20.18867 Ang^3 )
     density =      9.18662 g/cm^3

CELL_PARAMETERS (alat=  5.41035287)
   0.951062715   0.000000000   0.000000000
   0.000000000   0.951062715   0.000000000
   0.000000000   0.000000000   0.951062715

ATOMIC_POSITIONS (crystal)
Fe1              0.0000000000        0.0000000000        0.0000000000
Fe1              0.5000000000        0.5000000000        0.5000000000



     Writing config-only to output data dir ./temp/fe-afm.save/ :
     XML data file
     NEW-OLD atomic charge density approx. for the potential

     Check: negative core charge=   -0.000005

     total cpu time spent up to now is      191.1 secs

     Self-consistent Calculation

     iteration #  1     ecut=    50.00 Ry     beta= 0.70
     Davidson diagonalization with overlap
     ethr =  1.00E-06,  avg # of iterations =  6.9

     total cpu time spent up to now is      203.9 secs

     total energy              =    -653.75268826 Ry
     estimated scf accuracy    <       0.00313780 Ry

     iteration #  2     ecut=    50.00 Ry     beta= 0.70
     Davidson diagonalization with overlap
     ethr =  9.81E-06,  avg # of iterations =  3.0

     total cpu time spent up to now is      212.0 secs

     total energy              =    -653.75423661 Ry
     estimated scf accuracy    <       0.01139374 Ry

     iteration #  3     ecut=    50.00 Ry     beta= 0.70
     Davidson diagonalization with overlap
     ethr =  9.81E-06,  avg # of iterations =  3.1

     total cpu time spent up to now is      218.5 secs

     total energy              =    -653.75579737 Ry
     estimated scf accuracy    <       0.00069638 Ry

     iteration #  4     ecut=    50.00 Ry     beta= 0.70
     Davidson diagonalization with overlap
     ethr =  2.18E-06,  avg # of iterations =  1.9

     total cpu time spent up to now is      224.6 secs

     total energy              =    -653.75618643 Ry
     estimated scf accuracy    <       0.00155954 Ry

     iteration #  5     ecut=    50.00 Ry     beta= 0.70
     Davidson diagonalization with overlap
     ethr =  2.18E-06,  avg # of iterations =  2.0

     total cpu time spent up to now is      230.0 secs

     total energy              =    -653.75636490 Ry
     estimated scf accuracy    <       0.00000382 Ry

     iteration #  6     ecut=    50.00 Ry     beta= 0.70
     Davidson diagonalization with overlap
     ethr =  1.19E-08,  avg # of iterations =  3.1

     total cpu time spent up to now is      237.3 secs

     total energy              =    -653.75637193 Ry
     estimated scf accuracy    <       0.00001056 Ry

     iteration #  7     ecut=    50.00 Ry     beta= 0.70
     Davidson diagonalization with overlap
     ethr =  1.19E-08,  avg # of iterations =  2.9

     total cpu time spent up to now is      243.5 secs

     total energy              =    -653.75637363 Ry
     estimated scf accuracy    <       0.00000016 Ry

     iteration #  8     ecut=    50.00 Ry     beta= 0.70
     Davidson diagonalization with overlap
     ethr =  5.02E-10,  avg # of iterations =  2.5

     total cpu time spent up to now is      250.0 secs

     total energy              =    -653.75637365 Ry
     estimated scf accuracy    <          6.2E-09 Ry

     iteration #  9     ecut=    50.00 Ry     beta= 0.70
     Davidson diagonalization with overlap
     ethr =  1.94E-11,  avg # of iterations =  2.3

     total cpu time spent up to now is      256.8 secs

     total energy              =    -653.75637365 Ry
     estimated scf accuracy    <          6.5E-09 Ry

     iteration # 10     ecut=    50.00 Ry     beta= 0.70
     Davidson diagonalization with overlap
     ethr =  1.94E-11,  avg # of iterations =  2.0

     total cpu time spent up to now is      262.0 secs

     End of self-consistent calculation

          k = 0.0000 0.0000 0.0000 (   949 PWs)   bands (ev):

   -65.9868 -65.7534 -32.2504 -32.2504 -32.2504 -31.7953 -31.7953 -31.7953
    11.7774  16.0493  16.0493  19.1512  19.1512  19.1512  21.0034  21.0034
    22.1882  22.1882  22.1882  31.7618

          k = 0.0000 0.0000 0.0956 (   944 PWs)   bands (ev):

   -65.9814 -65.7573 -32.2499 -32.2406 -32.2406 -31.8135 -31.8040 -31.8040
    11.9671  16.1396  16.1414  19.1463  19.1463  19.2089  20.8967  21.0444
    21.9918  21.9918  22.1225  30.6734

          k = 0.0000 0.0000 0.1912 (   952 PWs)   bands (ev):

   -65.9658 -65.7691 -32.2464 -32.2123 -32.2123 -31.8642 -31.8293 -31.8293
    12.5202  16.3718  16.4099  19.1418  19.1418  19.3772  20.5851  21.1607
    21.4986  21.4986  21.9316  28.4904

          k = 0.0000 0.0000 0.2868 (   944 PWs)   bands (ev):

   -65.9415 -65.7880 -32.2347 -32.1680 -32.1680 -31.9377 -31.8698 -31.8698
    13.3872  16.6351  16.8423  19.1710  19.1710  19.6452  20.0962  20.8919
    20.8919  21.3392  21.6340  26.2134

          k = 0.0000 0.0000 0.3823 (   940 PWs)   bands (ev):

   -65.9110 -65.8136 -32.2086 -32.1117 -32.1117 -32.0204 -31.9225 -31.9225
    14.4676  16.7257  17.4087  19.2745  19.2745  19.4751  19.9953  20.3114
    20.3114  21.2570  21.5907  24.2382

          k = 0.0000 0.0000 0.4779 (   936 PWs)   bands (ev):

   -65.8776 -65.8442 -32.1635 -32.0991 -32.0485 -32.0485 -31.9837 -31.9837
    15.5707  16.3994  18.0706  18.7791  19.4880  19.4880  19.8331  19.8331
    20.4020  20.8346  22.0065  22.8168

          k = 0.0000 0.0956 0.0956 (   941 PWs)   bands (ev):

   -65.9762 -65.7610 -32.2657 -32.2312 -32.2152 -31.8479 -31.8122 -31.7954
    12.1537  16.2249  16.2344  19.0301  19.1303  19.3767  20.8824  21.0131
    21.6654  21.7976  22.2153  30.7522

          k = 0.0000 0.0956 0.1912 (   947 PWs)   bands (ev):

   -65.9610 -65.7722 -32.2756 -32.2039 -32.1755 -31.9104 -31.8365 -31.8067
    12.6969  16.4523  16.4967  18.9388  19.0973  19.6293  20.6448  21.1111
    21.1154  21.3199  22.1444  28.7345

          k = 0.0000 0.0956 0.2868 (   941 PWs)   bands (ev):

   -65.9375 -65.7904 -32.2730 -32.1613 -32.1253 -31.9894 -31.8751 -31.8378
    13.5451  16.7114  16.9040  18.9127  19.0676  19.9475  20.2519  20.5077
    20.7598  21.2968  21.9128  26.4328

          k = 0.0000 0.0956 0.3823 (   939 PWs)   bands (ev):

   -65.9082 -65.8148 -32.2531 -32.1072 -32.0736 -32.0668 -31.9256 -31.8843
    14.5925  16.7876  17.4319  18.9796  18.9815  19.8673  19.9448  20.2811
    20.3236  21.5562  21.5717  24.4038

          k = 0.0000 0.0956 0.4779 (   940 PWs)   bands (ev):

   -65.8760 -65.8442 -32.2126 -32.1511 -32.0464 -32.0040 -31.9842 -31.9414
    15.6517  16.4515  18.0314  18.6140  19.1660  19.4874  19.7821  19.9589
    20.7397  21.1668  22.0023  22.8923

          k = 0.0000 0.1912 0.1912 (   945 PWs)   bands (ev):

   -65.9474 -65.7817 -32.3068 -32.1797 -32.1202 -31.9880 -31.8574 -31.7957
    13.2074  16.6156  16.7842  18.7140  19.0058  20.0073  20.5016  20.7085
    20.9049  21.0479  22.2882  28.7284

          k = 0.0000 0.1912 0.2868 (   938 PWs)   bands (ev):

   -65.9264 -65.7973 -32.3234 -32.1419 -32.0763 -32.0600 -31.8909 -31.8066
    13.9883  16.7853  17.1989  18.5739  18.9245  19.8827  20.4223  20.4883
    20.5445  21.1860  22.2370  26.8446

          k = 0.0000 0.1912 0.3823 (   936 PWs)   bands (ev):

   -65.9003 -65.8184 -32.3196 -32.1633 -32.0940 -31.9977 -31.9348 -31.8366
    14.9171  16.7905  17.6732  18.5480  18.8263  19.3412  20.2583  20.3410
    20.8562  21.4544  22.0210  24.7635

          k = 0.0000 0.1912 0.4779 (   944 PWs)   bands (ev):

   -65.8720 -65.8439 -32.2912 -32.2378 -32.0405 -31.9859 -31.9368 -31.8816
    15.8081  16.4695  18.1599  18.5791  18.6612  18.9266  20.2316  20.2623
    21.2880  21.6892  21.9807  23.0697

          k = 0.0000 0.2868 0.2868 (   943 PWs)   bands (ev):

   -65.9094 -65.8089 -32.3603 -32.1690 -32.1117 -31.9942 -31.9163 -31.7961
    14.6248  16.7541  17.6890  18.3207  18.9130  19.2794  20.3043  20.7416
    20.9111  21.1165  22.3849  26.5101

          k = 0.0000 0.2868 0.3823 (   945 PWs)   bands (ev):

   -65.8886 -65.8247 -32.3752 -32.2544 -32.0738 -31.9498 -31.9325 -31.8064
    15.3021  16.5924  18.1954  18.2341  18.7765  19.0357  20.3349  20.7200
    21.3016  21.3789  22.3401  24.9300

          k = 0.0000 0.2868 0.4779 (   944 PWs)   bands (ev):

   -65.8661 -65.8442 -32.3628 -32.3215 -32.0317 -31.9892 -31.8782 -31.8349
    15.8732  16.2974  18.2237  18.4187  18.7203  19.0290  20.5177  20.6724
    21.7970  21.9058  22.1307  23.1966

          k = 0.0000 0.3823 0.3823 (   946 PWs)   bands (ev):

   -65.8743 -65.8338 -32.4092 -32.3329 -32.0487 -31.9700 -31.8768 -31.7965
    15.6100  16.3202  17.9765  18.3288  18.9300  19.6311  20.5221  20.9143
    21.2045  21.8388  22.4739  24.3332

          k = 0.0000 0.3823 0.4779 (   949 PWs)   bands (ev):

   -65.8596 -65.8456 -32.4146 -32.3885 -32.0214 -31.9944 -31.8339 -31.8063
    15.8377  16.0618  17.9187  18.0371  19.5746  19.9545  20.7580  20.9281
    21.6961  22.1971  22.4195  23.0138

          k = 0.0000 0.4779 0.4779 (   948 PWs)   bands (ev):

   -65.8535 -65.8486 -32.4382 -32.4293 -32.0110 -32.0018 -31.8063 -31.7968
    15.8178  15.8881  17.7790  17.8184  20.4773  20.9070  20.9262  21.2097
    21.2682  22.3034  22.4494  22.5273

          k = 0.0956 0.0956 0.0956 (   949 PWs)   bands (ev):

   -65.9712 -65.7646 -32.2557 -32.2557 -32.1829 -31.8799 -31.8044 -31.8044
    12.3370  16.3171  16.3171  19.0097  19.0097  19.5460  20.9314  20.9314
    21.2342  22.0208  22.0208  31.1073

          k = 0.0956 0.0956 0.1912 (   943 PWs)   bands (ev):

   -65.9565 -65.7752 -32.2766 -32.2264 -32.1369 -31.9444 -31.8306 -31.8081
    12.8725  16.5562  16.5592  18.8749  18.9562  19.8447  20.6334  20.6999
    21.0663  21.5398  22.0703  28.9930

          k = 0.0956 0.0956 0.2868 (   934 PWs)   bands (ev):

   -65.9337 -65.7925 -32.2838 -32.1807 -32.0846 -32.0241 -31.8725 -31.8301
    13.7038  16.8165  16.9416  18.8246  18.8797  20.0473  20.2051  20.3608
    20.9617  21.2610  21.9274  26.6696

          k = 0.0956 0.0956 0.3823 (   941 PWs)   bands (ev):

   -65.9055 -65.8160 -32.2720 -32.1226 -32.1070 -32.0281 -31.9270 -31.8672
    14.7221  16.8769  17.4290  18.7467  18.8923  19.5964  20.0254  20.4330
    20.6058  21.5319  21.6550  24.6051

          k = 0.0956 0.0956 0.4779 (   938 PWs)   bands (ev):

   -65.8746 -65.8439 -32.2379 -32.1813 -32.0573 -31.9903 -31.9704 -31.9154
    15.7432  16.5237  17.9640  18.4464  19.0736  19.3069  19.8907  20.0502
    20.9885  21.3275  22.0348  23.0240

          k = 0.0956 0.1912 0.1912 (   941 PWs)   bands (ev):

   -65.9433 -65.7842 -32.2959 -32.2157 -32.0827 -32.0147 -31.8477 -31.8055
    13.3785  16.7239  16.8411  18.6734  18.8339  20.0034  20.2369  20.7622
    21.0127  21.2908  22.0952  29.0664

          k = 0.0956 0.1912 0.2868 (   942 PWs)   bands (ev):

   -65.9230 -65.7992 -32.3156 -32.1750 -32.0975 -32.0264 -31.8849 -31.8136
    14.1498  16.9132  17.2198  18.5241  18.7359  19.4496  20.5919  20.6882
    20.8322  21.1670  22.0677  27.1382

          k = 0.0956 0.1912 0.3823 (   939 PWs)   bands (ev):

   -65.8979 -65.8193 -32.3174 -32.1790 -32.1201 -31.9708 -31.9353 -31.8369
    15.0610  16.9253  17.6200  18.4474  18.6886  19.0923  20.3865  20.4707
    21.1005  21.4854  21.8904  25.0498

          k = 0.0956 0.1912 0.4779 (   941 PWs)   bands (ev):

   -65.8706 -65.8437 -32.2951 -32.2477 -32.0580 -31.9946 -31.9187 -31.8730
    15.9296  16.5854  18.0054  18.3021  18.7566  18.9004  20.2795  20.3021
    21.3620  21.6221  22.1785  23.3492

          k = 0.0956 0.2868 0.2868 (   947 PWs)   bands (ev):

   -65.9066 -65.8101 -32.3483 -32.1809 -32.1437 -31.9693 -31.9124 -31.8070
    14.7890  16.8864  17.7003  18.2764  18.7017  18.9430  20.5896  20.7709
    21.1112  21.2036  22.1720  26.8907

          k = 0.0956 0.2868 0.3823 (   943 PWs)   bands (ev):

   -65.8864 -65.8253 -32.3646 -32.2589 -32.0991 -31.9508 -31.9172 -31.8154
    15.4622  16.7255  18.1461  18.1588  18.6329  18.8147  20.4992  20.7284
    21.2552  21.7631  22.1058  25.3370

          k = 0.0956 0.2868 0.4779 (   939 PWs)   bands (ev):

   -65.8648 -65.8438 -32.3560 -32.3198 -32.0484 -31.9974 -31.8727 -31.8380
    16.0182  16.4308  18.1342  18.2185  18.7543  18.9076  20.5757  20.6670
    21.5160  21.8608  22.4986  23.6849

          k = 0.0956 0.3823 0.3823 (   943 PWs)   bands (ev):

   -65.8727 -65.8339 -32.3963 -32.3297 -32.0686 -31.9733 -31.8722 -31.8084
    15.7704  16.4505  17.9417  18.2227  18.8641  19.3083  20.6241  20.9148
    21.2083  22.1492  22.2765  24.8921

          k = 0.0956 0.3823 0.4779 (   941 PWs)   bands (ev):

   -65.8584 -65.8451 -32.4027 -32.3799 -32.0347 -32.0019 -31.8381 -31.8163
    15.9856  16.1966  17.8819  17.9785  19.4452  19.6863  20.8034  20.9224
    21.4420  21.9214  22.8759  23.8006

          k = 0.0956 0.4779 0.4779 (   954 PWs)   bands (ev):

   -65.8526 -65.8480 -32.4247 -32.4169 -32.0210 -32.0097 -31.8167 -31.8093
    15.9595  16.0250  17.7525  17.7871  20.2296  20.4886  20.9584  21.0150
    21.2720  21.6598  23.2279  23.5816

          k = 0.1912 0.1912 0.1912 (   943 PWs)   bands (ev):

   -65.9315 -65.7919 -32.2642 -32.2642 -32.0759 -32.0277 -31.8341 -31.8341
    13.8688  17.0037  17.0037  18.5634  18.5634  19.3481  20.6918  20.9090
    20.9090  21.6387  21.6387  29.9539

          k = 0.1912 0.1912 0.2868 (   939 PWs)   bands (ev):

   -65.9133 -65.8046 -32.3012 -32.2147 -32.1491 -31.9752 -31.8798 -31.8302
    14.6047  17.2479  17.2813  18.4034  18.4131  18.8372  20.7523  21.0991
    21.1327  21.2239  21.7733  27.7987

          k = 0.1912 0.1912 0.3823 (   937 PWs)   bands (ev):

   -65.8910 -65.8220 -32.3184 -32.2198 -32.1517 -31.9392 -31.9283 -31.8385
    15.4448  17.2243  17.5333  18.2420  18.4309  18.6966  20.5827  20.7275
    21.2745  21.7189  21.8514  25.6830

          k = 0.1912 0.1912 0.4779 (   937 PWs)   bands (ev):

   -65.8667 -65.8432 -32.3105 -32.2764 -32.0808 -32.0080 -31.8888 -31.8584
    16.2108  16.8087  17.8111  18.0476  18.6152  18.7381  20.4705  20.5017
    21.4134  21.5641  22.7010  23.9490

          k = 0.1912 0.2868 0.2868 (   944 PWs)   bands (ev):

   -65.8986 -65.8139 -32.3135 -32.2124 -32.2025 -31.9293 -31.9023 -31.8388
    15.2513  17.2548  17.7282  18.1627  18.3107  18.3692  20.8833  21.0125
    21.0894  21.7268  21.8144  27.8414

          k = 0.1912 0.2868 0.3823 (   953 PWs)   bands (ev):

   -65.8807 -65.8269 -32.3355 -32.2723 -32.1496 -31.9523 -31.8925 -31.8411
    15.9048  17.0823  17.9200  18.0240  18.3747  18.4058  20.8099  20.8275
    21.2340  21.7027  22.4761  26.2418

          k = 0.1912 0.2868 0.4779 (   945 PWs)   bands (ev):

   -65.8615 -65.8430 -32.3387 -32.3169 -32.0838 -32.0155 -31.8658 -31.8490
    16.4016  16.7718  17.9106  17.9444  18.5947  18.6480  20.7357  20.7542
    21.3953  21.5653  23.3321  24.5772

          k = 0.1912 0.3823 0.3823 (   955 PWs)   bands (ev):

   -65.8683 -65.8342 -32.3587 -32.3216 -32.1161 -31.9797 -31.8674 -31.8431
    16.2234  16.7967  17.8549  17.9953  18.6716  18.6951  20.8529  20.9813
    21.2156  21.6838  23.1486  26.0508

          k = 0.1912 0.3823 0.4779 (   957 PWs)   bands (ev):

   -65.8556 -65.8439 -32.3685 -32.3561 -32.0689 -32.0205 -31.8526 -31.8457
    16.3926  16.5602  17.7921  17.8477  19.0832  19.0917  20.9256  20.9777
    21.3303  21.5318  23.9472  25.0000

          k = 0.1912 0.4779 0.4779 (   954 PWs)   bands (ev):

   -65.8502 -65.8462 -32.3854 -32.3813 -32.0479 -32.0303 -31.8472 -31.8457
    16.3553  16.4033  17.6903  17.7149  19.5968  19.6219  21.0439  21.0710
    21.2832  21.3927  24.5215  24.9686

          k = 0.2868 0.2868 0.2868 (   952 PWs)   bands (ev):

   -65.8865 -65.8206 -32.2590 -32.2590 -32.2536 -31.8969 -31.8894 -31.8894
    15.9012  17.7538  17.7538  17.8320  18.0207  18.0207  21.0456  21.0456
    21.3102  21.3102  22.5157  29.1023

          k = 0.2868 0.2868 0.3823 (   953 PWs)   bands (ev):

   -65.8720 -65.8301 -32.3011 -32.2923 -32.1897 -31.9551 -31.8771 -31.8765
    16.4941  17.3751  17.7664  17.8944  18.0251  18.2497  20.9844  21.0411
    21.2110  21.4367  23.2786  27.2261

          k = 0.2868 0.2868 0.4779 (   952 PWs)   bands (ev):

   -65.8567 -65.8423 -32.3214 -32.3175 -32.1115 -32.0312 -31.8689 -31.8678
    16.8205  17.0556  17.7762  17.8115  18.3262  18.4828  20.9291  20.9305
    21.3397  21.4238  24.2189  25.5185

          k = 0.2868 0.3823 0.3823 (   951 PWs)   bands (ev):

   -65.8618 -65.8352 -32.3122 -32.2997 -32.1726 -31.9809 -31.8982 -31.8729
    16.8845  17.1785  17.7587  17.8667  18.1148  18.3895  21.0860  21.0967
    21.2195  21.3851  24.1225  27.4563

          k = 0.2868 0.3823 0.4779 (   956 PWs)   bands (ev):

   -65.8516 -65.8425 -32.3227 -32.3175 -32.1106 -32.0405 -31.8919 -31.8798
    16.9490  17.0092  17.7158  17.7685  18.5003  18.6285  21.0790  21.0923
    21.3024  21.3659  25.0933  26.3042

          k = 0.2868 0.4779 0.4779 (   959 PWs)   bands (ev):

   -65.8471 -65.8439 -32.3268 -32.3238 -32.0841 -32.0554 -31.9035 -31.8959
    16.9117  16.9192  17.6302  17.6611  18.8719  18.9182  21.1549  21.1648
    21.2968  21.3268  25.9322  26.5163

          k = 0.3823 0.3823 0.3823 (   949 PWs)   bands (ev):

   -65.8543 -65.8375 -32.3026 -32.2246 -32.2246 -31.9698 -31.9698 -31.8908
    17.2625  17.5617  17.7025  17.7025  18.0946  18.0946  21.2150  21.2150
    21.2466  21.2466  25.1295  29.0207

          k = 0.3823 0.3823 0.4779 (   954 PWs)   bands (ev):

   -65.8474 -65.8416 -32.2888 -32.2640 -32.1398 -32.0525 -31.9466 -31.9176
    17.2573  17.3739  17.7286  17.8613  18.1444  18.3044  21.2044  21.2045
    21.2955  21.3129  26.2387  27.5649

          k = 0.3823 0.4779 0.4779 (   950 PWs)   bands (ev):

   -65.8439 -65.8419 -32.2616 -32.2453 -32.1214 -32.0726 -31.9786 -31.9576
    17.3520  17.4652  17.6261  17.7451  18.3022  18.3600  21.2562  21.2571
    21.3084  21.3146  27.3697  28.1908

          k = 0.4779 0.4779 0.4779 (   946 PWs)   bands (ev):

   -65.8418 -65.8410 -32.2002 -32.1566 -32.1566 -32.0652 -32.0652 -32.0214
    17.5585  17.7238  17.7238  17.9620  17.9620  18.0104  21.3146  21.3146
    21.3157  21.3157  28.7733  29.9711

     the Fermi energy is    21.0524 ev

!    total energy              =    -653.75637365 Ry
     total all-electron energy =     -5086.407792 Ry
     estimated scf accuracy    <          9.9E-11 Ry
     smearing contrib. (-TS)   =      -0.01664116 Ry
     internal energy E=F+TS    =    -653.73973250 Ry

     The total energy is F=E-TS. E is the sum of the following terms:
     one-electron contribution =    -196.79657492 Ry
     hartree contribution      =     121.41069463 Ry
     xc contribution           =     -54.79068288 Ry
     ewald contribution        =    -362.11384439 Ry
     one-center paw contrib.   =    -161.44932493 Ry

     convergence has been achieved in  10 iterations

     Forces acting on atoms (cartesian axes, Ry/au):

     atom    1 type  1   force =     0.00000000    0.00000000    0.00000000
     atom    2 type  1   force =     0.00000000    0.00000000    0.00000000

     Total force =     0.000000     Total SCF correction =     0.000000


     Computing stress (Cartesian axis) and pressure

          total   stress  (Ry/bohr**3)                   (kbar)     P=      -26.57
  -0.00018063   0.00000000   0.00000000          -26.57        0.00        0.00
   0.00000000  -0.00018063   0.00000000            0.00      -26.57        0.00
   0.00000000   0.00000000  -0.00018063            0.00        0.00      -26.57

     Energy error            =      2.9E-02 Ry
     Gradient error          =      0.0E+00 Ry/Bohr
     Cell gradient error     =      2.7E+01 kbar

     number of scf cycles    =   3
     number of bfgs steps    =   2

     enthalpy           old  =    -653.7269738575 Ry
     enthalpy           new  =    -653.7563736550 Ry

     CASE: enthalpy          _new < enthalpy          _old

     new trust radius        =       0.0050875948 bohr
ibrav =      1
 celldm(1) =      5.13437077
Input lattice vectors:
     0.94899000     0.00000000     0.00000000
     0.00000000     0.94899000     0.00000000
     0.00000000     0.00000000     0.94899000
New lattice vectors in INITIAL alat:
     0.94899000     0.00000000     0.00000000
     0.00000000     0.94899000     0.00000000
     0.00000000     0.00000000     0.94899000
New lattice vectors in NEW alat (for information only):
     1.00000000     0.00000000     0.00000000
     0.00000000     1.00000000     0.00000000
     0.00000000     0.00000000     1.00000000
Discrepancy in bohr =     0.000000    0.000000    0.000000
     new conv_thr            =            1.0E-10 Ry

     new unit-cell volume =    135.35107 a.u.^3 (    20.05696 Ang^3 )
     density =      9.24695 g/cm^3

CELL_PARAMETERS (alat=  5.41035287)
   0.948990001   0.000000000   0.000000000
   0.000000000   0.948990001   0.000000000
   0.000000000   0.000000000   0.948990001

ATOMIC_POSITIONS (crystal)
Fe1              0.0000000000        0.0000000000        0.0000000000
Fe1              0.5000000000        0.5000000000        0.5000000000



     Writing config-only to output data dir ./temp/fe-afm.save/ :
     XML data file
     NEW-OLD atomic charge density approx. for the potential

     Check: negative core charge=   -0.000005

     total cpu time spent up to now is      268.3 secs

     Self-consistent Calculation

     iteration #  1     ecut=    50.00 Ry     beta= 0.70
     Davidson diagonalization with overlap
     ethr =  1.00E-06,  avg # of iterations =  3.0

     Threshold (ethr) on eigenvalues was too large:
     Diagonalizing with lowered threshold

     Davidson diagonalization with overlap
     ethr =  4.46E-08,  avg # of iterations =  2.5

     total cpu time spent up to now is      280.9 secs

     total energy              =    -653.75645500 Ry
     estimated scf accuracy    <       0.00001854 Ry

     iteration #  2     ecut=    50.00 Ry     beta= 0.70
     Davidson diagonalization with overlap
     ethr =  5.79E-08,  avg # of iterations =  3.1

     total cpu time spent up to now is      288.7 secs

     total energy              =    -653.75645851 Ry
     estimated scf accuracy    <       0.00007400 Ry

     iteration #  3     ecut=    50.00 Ry     beta= 0.70
     Davidson diagonalization with overlap
     ethr =  5.79E-08,  avg # of iterations =  3.2

     total cpu time spent up to now is      295.3 secs

     total energy              =    -653.75646673 Ry
     estimated scf accuracy    <       0.00002528 Ry

     iteration #  4     ecut=    50.00 Ry     beta= 0.70
     Davidson diagonalization with overlap
     ethr =  5.79E-08,  avg # of iterations =  1.0

     total cpu time spent up to now is      299.9 secs

     total energy              =    -653.75646450 Ry
     estimated scf accuracy    <       0.00000129 Ry

     iteration #  5     ecut=    50.00 Ry     beta= 0.70
     Davidson diagonalization with overlap
     ethr =  4.02E-09,  avg # of iterations =  2.0

     total cpu time spent up to now is      305.7 secs

     total energy              =    -653.75646421 Ry
     estimated scf accuracy    <       0.00000011 Ry

     iteration #  6     ecut=    50.00 Ry     beta= 0.70
     Davidson diagonalization with overlap
     ethr =  3.37E-10,  avg # of iterations =  2.4

     total cpu time spent up to now is      311.5 secs

     total energy              =    -653.75646425 Ry
     estimated scf accuracy    <          3.1E-09 Ry

     iteration #  7     ecut=    50.00 Ry     beta= 0.70
     Davidson diagonalization with overlap
     ethr =  9.68E-12,  avg # of iterations =  2.6

     total cpu time spent up to now is      317.6 secs

     total energy              =    -653.75646425 Ry
     estimated scf accuracy    <          1.4E-09 Ry

     iteration #  8     ecut=    50.00 Ry     beta= 0.70
     Davidson diagonalization with overlap
     ethr =  4.48E-12,  avg # of iterations =  2.0

     total cpu time spent up to now is      322.9 secs

     End of self-consistent calculation

          k = 0.0000 0.0000 0.0000 (   949 PWs)   bands (ev):

   -65.8313 -65.5917 -32.0961 -32.0961 -32.0961 -31.6316 -31.6316 -31.6316
    11.9049  16.1678  16.1678  19.2997  19.2997  19.2997  21.1685  21.1685
    22.3658  22.3658  22.3658  31.9810

          k = 0.0000 0.0000 0.0958 (   944 PWs)   bands (ev):

   -65.8258 -65.5957 -32.0956 -32.0862 -32.0862 -31.6501 -31.6404 -31.6404
    12.0957  16.2592  16.2606  19.2947  19.2947  19.3578  21.0606  21.2100
    22.1674  22.1674  22.2994  30.8909

          k = 0.0000 0.0000 0.1916 (   952 PWs)   bands (ev):

   -65.8097 -65.6078 -32.0922 -32.0572 -32.0572 -31.7021 -31.6663 -31.6663
    12.6517  16.4948  16.5312  19.2902  19.2902  19.5277  20.7455  21.3278
    21.6693  21.6693  22.1065  28.7021

          k = 0.0000 0.0000 0.2874 (   944 PWs)   bands (ev):

   -65.7848 -65.6272 -32.0804 -32.0120 -32.0120 -31.7772 -31.7076 -31.7076
    13.5227  16.7629  16.9669  19.3197  19.3197  19.7982  20.2513  21.0566
    21.0566  21.5087  21.8058  26.4171

          k = 0.0000 0.0000 0.3832 (   940 PWs)   bands (ev):

   -65.7535 -65.6535 -32.0539 -31.9546 -31.9546 -31.8618 -31.7614 -31.7614
    14.6069  16.8593  17.5380  19.4241  19.4241  19.6238  20.1514  20.4707
    20.4707  21.4251  21.7633  24.4329

          k = 0.0000 0.0000 0.4790 (   936 PWs)   bands (ev):

   -65.7191 -65.6848 -32.0079 -31.9422 -31.8900 -31.8900 -31.8238 -31.8238
    15.7116  16.5381  18.2058  18.9209  19.6395  19.6395  19.9879  19.9879
    20.5619  20.9985  22.1841  23.0022

          k = 0.0000 0.0958 0.0958 (   941 PWs)   bands (ev):

   -65.8204 -65.5995 -32.1118 -32.0766 -32.0602 -31.6854 -31.6488 -31.6317
    12.2832  16.3449  16.3550  19.1774  19.2786  19.5273  21.0461  21.1784
    21.8376  21.9713  22.3931  30.9701

          k = 0.0000 0.0958 0.1916 (   947 PWs)   bands (ev):

   -65.8049 -65.6110 -32.1221 -32.0487 -32.0197 -31.7492 -31.6736 -31.6432
    12.8292  16.5752  16.6197  19.0851  19.2452  19.7823  20.8060  21.2777
    21.2823  21.4889  22.3215  28.9476

          k = 0.0000 0.0958 0.2874 (   941 PWs)   bands (ev):

   -65.7807 -65.6296 -32.1195 -32.0052 -31.9685 -31.8300 -31.7130 -31.6750
    13.6811  16.8394  17.0300  19.0588  19.2151  20.1034  20.4090  20.6687
    20.9234  21.4657  22.0875  26.6376

          k = 0.0000 0.0958 0.3832 (   939 PWs)   bands (ev):

   -65.7506 -65.6547 -32.0993 -31.9499 -31.9161 -31.9088 -31.7645 -31.7225
    14.7318  16.9213  17.5622  19.1263  19.1275  20.0211  20.1005  20.4401
    20.4830  21.7285  21.7429  24.5992

          k = 0.0000 0.0958 0.4790 (   940 PWs)   bands (ev):

   -65.7175 -65.6848 -32.0580 -31.9953 -31.8879 -31.8446 -31.8244 -31.7808
    15.7922  16.5898  18.1670  18.7552  19.3144  19.6388  19.9360  20.1147
    20.9029  21.3341  22.1798  23.0781

          k = 0.0000 0.1916 0.1916 (   945 PWs)   bands (ev):

   -65.7909 -65.6207 -32.1539 -32.0239 -31.9633 -31.8286 -31.6949 -31.6320
    13.3419  16.7397  16.9109  18.8582  19.1528  20.1639  20.6625  20.8707
    21.0699  21.2138  22.4668  28.9403

          k = 0.0000 0.1916 0.2874 (   938 PWs)   bands (ev):

   -65.7692 -65.6367 -32.1710 -31.9853 -31.9188 -31.9019 -31.7291 -31.6431
    14.1254  16.9125  17.3298  18.7166  19.0709  20.0377  20.5827  20.6494
    20.7051  21.3536  22.4150  27.0504

          k = 0.0000 0.1916 0.3832 (   936 PWs)   bands (ev):

   -65.7425 -65.6584 -32.1672 -32.0077 -31.9365 -31.8383 -31.7739 -31.6738
    15.0557  16.9218  17.8084  18.6905  18.9721  19.4912  20.4170  20.4998
    21.0206  21.6255  22.1968  24.9600

          k = 0.0000 0.1916 0.4790 (   944 PWs)   bands (ev):

   -65.7134 -65.6846 -32.1383 -32.0837 -31.8818 -31.8261 -31.7761 -31.7197
    15.9460  16.6046  18.2993  18.7225  18.8048  19.0727  20.3898  20.4208
    21.4566  21.8616  22.1578  23.2561

          k = 0.0000 0.2874 0.2874 (   943 PWs)   bands (ev):

   -65.7518 -65.6486 -32.2088 -32.0135 -31.9545 -31.8348 -31.7550 -31.6325
    14.7622  16.8817  17.8253  18.4610  19.0609  19.4286  20.4636  20.9048
    21.0762  21.2834  22.5643  26.7122

          k = 0.0000 0.2874 0.3832 (   945 PWs)   bands (ev):

   -65.7304 -65.6648 -32.2241 -32.1007 -31.9158 -31.7892 -31.7717 -31.6430
    15.4377  16.7210  18.3346  18.3758  18.9212  19.1866  20.4942  20.8830
    21.4708  21.5485  22.5191  25.1251

          k = 0.0000 0.2874 0.4790 (   944 PWs)   bands (ev):

   -65.7073 -65.6848 -32.2115 -32.1693 -31.8728 -31.8294 -31.7163 -31.6721
    16.0056  16.4273  18.3632  18.5600  18.8670  19.1796  20.6787  20.8351
    21.9706  22.0817  22.3076  23.3824

          k = 0.0000 0.3832 0.3832 (   946 PWs)   bands (ev):

   -65.7158 -65.6742 -32.2589 -32.1810 -31.8902 -31.8098 -31.7149 -31.6329
    15.7410  16.4470  18.1136  18.4693  19.0784  19.7898  20.6832  21.0797
    21.3724  22.0129  22.6542  24.5230

          k = 0.0000 0.3832 0.4790 (   949 PWs)   bands (ev):

   -65.7006 -65.6863 -32.2644 -32.2378 -31.8623 -31.8348 -31.6711 -31.6429
    15.9652  16.1880  18.0554  18.1748  19.7291  20.1140  20.9216  21.0937
    21.8693  22.3747  22.5993  23.1961

          k = 0.0000 0.4790 0.4790 (   948 PWs)   bands (ev):

   -65.6943 -65.6894 -32.2885 -32.2794 -31.8517 -31.8423 -31.6429 -31.6332
[...]

     total energy              =    -653.73711963 Ry
     estimated scf accuracy    <       0.00002792 Ry

     iteration #  7     ecut=    50.00 Ry     beta= 0.70
     Davidson diagonalization with overlap
     ethr =  8.72E-08,  avg # of iterations =  1.0

     total cpu time spent up to now is      424.2 secs

     total energy              =    -653.73712085 Ry
     estimated scf accuracy    <       0.00000096 Ry

     iteration #  8     ecut=    50.00 Ry     beta= 0.70
     Davidson diagonalization with overlap
     ethr =  3.00E-09,  avg # of iterations =  2.6

     total cpu time spent up to now is      429.3 secs

     total energy              =    -653.73712101 Ry
     estimated scf accuracy    <       0.00000065 Ry

     iteration #  9     ecut=    50.00 Ry     beta= 0.70
     Davidson diagonalization with overlap
     ethr =  2.03E-09,  avg # of iterations =  1.0

     total cpu time spent up to now is      433.3 secs

     total energy              =    -653.73712103 Ry
     estimated scf accuracy    <       0.00000001 Ry

     iteration # 10     ecut=    50.00 Ry     beta= 0.70
     Davidson diagonalization with overlap
     ethr =  3.41E-11,  avg # of iterations =  2.3

     total cpu time spent up to now is      438.7 secs

     total energy              =    -653.73712103 Ry
     estimated scf accuracy    <          2.3E-09 Ry

     iteration # 11     ecut=    50.00 Ry     beta= 0.70
     Davidson diagonalization with overlap
     ethr =  7.09E-12,  avg # of iterations =  1.9

     total cpu time spent up to now is      443.2 secs

     total energy              =    -653.73712103 Ry
     estimated scf accuracy    <          4.1E-10 Ry

     iteration # 12     ecut=    50.00 Ry     beta= 0.70
     Davidson diagonalization with overlap
     ethr =  1.27E-12,  avg # of iterations =  1.2

     total cpu time spent up to now is      447.5 secs

     End of self-consistent calculation

          k = 0.0000 0.0000 0.0000 (   799 PWs)   bands (ev):

   -65.8242 -65.5837 -32.0869 -32.0869 -32.0869 -31.6198 -31.6198 -31.6198
    11.9307  16.1908  16.1908  19.3412  19.3412  19.3412  21.1941  21.1941
    22.3906  22.3906  22.3906  32.0059

          k = 0.0000 0.0000 0.0958 (   787 PWs)   bands (ev):

   -65.8186 -65.5878 -32.0845 -32.0754 -32.0754 -31.6394 -31.6289 -31.6289
    12.1202  16.2877  16.2907  19.3293  19.3293  19.3977  21.0858  21.2322
    22.2063  22.2063  22.3316  30.9187

          k = 0.0000 0.0000 0.1916 (   799 PWs)   bands (ev):

   -65.8024 -65.5999 -32.0824 -32.0465 -32.0465 -31.6918 -31.6558 -31.6558
    12.6753  16.5206  16.5600  19.3196  19.3196  19.5590  20.7670  21.3529
    21.6996  21.6996  22.1444  28.7315

          k = 0.0000 0.0000 0.2875 (   800 PWs)   bands (ev):

   -65.7773 -65.6196 -32.0705 -32.0013 -32.0013 -31.7670 -31.6972 -31.6972
    13.5473  16.7889  16.9939  19.3497  19.3497  19.8307  20.2724  21.0838
    21.0838  21.5353  21.8415  26.4452

          k = 0.0000 0.0000 0.3833 (   812 PWs)   bands (ev):

   -65.7460 -65.6459 -32.0453 -31.9449 -31.9449 -31.8504 -31.7514 -31.7514
    14.6298  16.8811  17.5562  19.4511  19.4511  19.6427  20.1818  20.4895
    20.4895  21.4570  21.8082  24.4551

          k = 0.0000 0.0000 0.4791 (   812 PWs)   bands (ev):

   -65.7116 -65.6774 -31.9985 -31.9317 -31.8803 -31.8803 -31.8137 -31.8137
    15.7343  16.5616  18.2239  18.9395  19.6657  19.6657  20.0073  20.0073
    20.5934  21.0287  22.2186  23.0310

          k = 0.0000 0.0958 0.0958 (   790 PWs)   bands (ev):

   -65.8132 -65.5917 -32.1013 -32.0659 -32.0491 -31.6752 -31.6377 -31.6203
    12.3074  16.3716  16.3854  19.2153  19.3136  19.5553  21.0712  21.1993
    21.8757  22.0057  22.4289  31.5648

          k = 0.0000 0.0958 0.1916 (   797 PWs)   bands (ev):

   -65.7975 -65.6032 -32.1114 -32.0379 -32.0098 -31.7390 -31.6628 -31.6323
    12.8538  16.6034  16.6455  19.1203  19.2768  19.8127  20.8287  21.3017
    21.3146  21.5157  22.3579  28.9769

          k = 0.0000 0.0958 0.2875 (   812 PWs)   bands (ev):

   -65.7733 -65.6220 -32.1098 -31.9952 -31.9588 -31.8201 -31.7027 -31.6648
    13.7046  16.8646  17.0532  19.0874  19.2405  20.1331  20.4308  20.6933
    20.9442  21.4911  22.1163  26.6652

          k = 0.0000 0.0958 0.3833 (   810 PWs)   bands (ev):

   -65.7432 -65.6472 -32.0902 -31.9403 -31.9050 -31.8993 -31.7542 -31.7116
    14.7551  16.9425  17.5853  19.1529  19.1574  20.0454  20.1209  20.4600
    20.5118  21.7702  21.7729  24.6212

          k = 0.0000 0.0958 0.4791 (   814 PWs)   bands (ev):

   -65.7101 -65.6772 -32.0479 -31.9857 -31.8779 -31.8342 -31.8145 -31.7708
    15.8140  16.6138  18.1910  18.7749  19.3380  19.6621  19.9583  20.1398
    20.9290  21.3649  22.2102  23.1078

          k = 0.0000 0.1916 0.1916 (   802 PWs)   bands (ev):

   -65.7834 -65.6131 -32.1437 -32.0136 -31.9537 -31.8186 -31.6842 -31.6209
    13.3672  16.7659  16.9370  18.8962  19.1805  20.1950  20.6908  20.8926
    21.0909  21.2398  22.4986  28.9639

          k = 0.0000 0.1916 0.2875 (   804 PWs)   bands (ev):

   -65.7618 -65.6291 -32.1603 -31.9751 -31.9085 -31.8922 -31.7187 -31.6322
    14.1504  16.9404  17.3548  18.7502  19.0986  20.0603  20.6117  20.6708
    20.7293  21.3823  22.4465  27.0776

          k = 0.0000 0.1916 0.3833 (   810 PWs)   bands (ev):

   -65.7351 -65.6509 -32.1578 -31.9965 -31.9270 -31.8287 -31.7638 -31.6623
    15.0802  16.9411  17.8322  18.7223  19.0016  19.5100  20.4376  20.5277
    21.0489  21.6660  22.2230  24.9826

          k = 0.0000 0.1916 0.4791 (   815 PWs)   bands (ev):

   -65.7059 -65.6770 -32.1290 -32.0739 -31.8722 -31.8165 -31.7654 -31.7092
    15.9679  16.6253  18.3226  18.7494  18.8290  19.0975  20.4185  20.4467
    21.4812  21.8858  22.1873  23.2826

          k = 0.0000 0.2875 0.2875 (   810 PWs)   bands (ev):

   -65.7443 -65.6410 -32.1991 -32.0024 -31.9452 -31.8254 -31.7447 -31.6212
    14.7882  16.9040  17.8476  18.4975  19.0936  19.4470  20.4821  20.9283
    21.1052  21.3182  22.5876  26.7344

          k = 0.0000 0.2875 0.3833 (   811 PWs)   bands (ev):

   -65.7229 -65.6573 -32.2145 -32.0908 -31.9060 -31.7791 -31.7612 -31.6320
    15.4635  16.7438  18.3675  18.3985  18.9424  19.2130  20.5249  20.9090
    21.5007  21.5753  22.5445  25.1481

          k = 0.0000 0.2875 0.4791 (   807 PWs)   bands (ev):

   -65.6998 -65.6773 -32.2020 -32.1595 -31.8632 -31.8196 -31.7056 -31.6605
    16.0305  16.4488  18.3934  18.5836  18.8930  19.2070  20.7085  20.8663
    21.9955  22.1146  22.3328  23.4073

          k = 0.0000 0.3833 0.3833 (   816 PWs)   bands (ev):

   -65.7082 -65.6666 -32.2494 -32.1720 -31.8805 -31.7999 -31.7042 -31.6221
    15.7678  16.4718  18.1472  18.4946  19.0995  19.8116  20.7138  21.1044
    21.3975  22.0339  22.6766  24.5445

          k = 0.0000 0.3833 0.4791 (   810 PWs)   bands (ev):

   -65.6930 -65.6787 -32.2553 -32.2285 -31.8524 -31.8249 -31.6601 -31.6315
    15.9921  16.2131  18.0873  18.2034  19.7514  20.1364  20.9526  21.1253
    21.8988  22.3967  22.6217  23.2191

          k = 0.0000 0.4791 0.4791 (   802 PWs)   bands (ev):

   -65.6867 -65.6818 -32.2778 -32.2703 -31.8408 -31.8321 -31.6320 -31.6219
    15.9699  16.0442  17.9491  17.9864  20.6634  21.1001  21.1226  21.3992
    21.4656  22.5022  22.6520  22.7387

          k = 0.0958 0.0958 0.0958 (   796 PWs)   bands (ev):

   -65.8079 -65.5954 -32.0915 -32.0915 -32.0160 -31.7077 -31.6298 -31.6298
    12.4924  16.4657  16.4657  19.1896  19.1896  19.7314  21.1203  21.1203
    21.4345  22.2297  22.2297  31.3515

          k = 0.0958 0.0958 0.1916 (   801 PWs)   bands (ev):

   -65.7928 -65.6064 -32.1124 -32.0616 -31.9708 -31.7736 -31.6571 -31.6337
    13.0303  16.7069  16.7073  19.0562  19.1308  20.0319  20.8205  20.8851
    21.2569  21.7380  22.2796  29.2362

          k = 0.0958 0.0958 0.2875 (   809 PWs)   bands (ev):

   -65.7694 -65.6243 -32.1207 -32.0149 -31.9176 -31.8555 -31.6999 -31.6563
    13.8648  16.9702  17.0915  19.0022  19.0532  20.2260  20.3928  20.5417
    21.1491  21.4554  22.1301  26.9030

          k = 0.0958 0.0958 0.3833 (   812 PWs)   bands (ev):

   -65.7404 -65.6483 -32.1096 -31.9557 -31.9394 -31.8601 -31.7557 -31.6944
    14.8851  17.0319  17.5834  18.9154  19.0663  19.7707  20.2061  20.6132
    20.7970  21.7444  21.8535  24.8244

          k = 0.0958 0.0958 0.4791 (   812 PWs)   bands (ev):

   -65.7086 -65.6771 -32.0740 -32.0163 -31.8891 -31.8204 -31.8004 -31.7437
    15.9065  16.6846  18.1222  18.6078  19.2501  19.4836  20.0700  20.2258
    21.1816  21.5254  22.2440  23.2399

          k = 0.0958 0.1916 0.1916 (   807 PWs)   bands (ev):

   -65.7792 -65.6157 -32.1326 -32.0501 -31.9155 -31.8461 -31.6746 -31.6316
    13.5381  16.8754  16.9951  18.8473  19.0068  20.1828  20.4210  20.9485
    21.2026  21.4844  22.3024  29.3051

          k = 0.0958 0.1916 0.2875 (   806 PWs)   bands (ev):

   -65.7584 -65.6310 -32.1528 -32.0095 -31.9301 -31.8580 -31.7124 -31.6392
    14.3136  17.0679  17.3757  18.7005  18.9091  19.6219  20.7814  20.8792
    21.0174  21.3642  22.2697  27.3735

          k = 0.0958 0.1916 0.3833 (   814 PWs)   bands (ev):

   -65.7326 -65.6518 -32.1557 -32.0135 -31.9536 -31.8011 -31.7643 -31.6630
    15.2252  17.0785  17.7783  18.6162  18.8612  19.2632  20.5730  20.6510
    21.2953  21.6883  22.0895  25.2715

          k = 0.0958 0.1916 0.4791 (   809 PWs)   bands (ev):

   -65.7045 -65.6768 -32.1326 -32.0841 -31.8897 -31.8248 -31.7471 -31.7001
    16.0917  16.7437  18.1692  18.4677  18.9310  19.0753  20.4643  20.4851
    21.5608  21.8231  22.3848  23.5636

          k = 0.0958 0.2875 0.2875 (   806 PWs)   bands (ev):

   -65.7414 -65.6423 -32.1865 -32.0147 -31.9774 -31.7998 -31.7399 -31.6326
    14.9542  17.0402  17.8618  18.4525  18.8784  19.1112  20.7698  20.9607
    21.3106  21.4047  22.3735  27.1190

          k = 0.0958 0.2875 0.3833 (   805 PWs)   bands (ev):

   -65.7207 -65.6578 -32.2033 -32.0953 -31.9315 -31.7799 -31.7454 -31.6408
    15.6252  16.8814  18.3181  18.3250  18.8045  18.9905  20.6875  20.9181
    21.4569  21.9626  22.3075  25.5598

          k = 0.0958 0.2875 0.4791 (   804 PWs)   bands (ev):

   -65.6985 -65.6769 -32.1951 -32.1579 -31.8797 -31.8277 -31.6996 -31.6640
    16.1770  16.5866  18.3013  18.3867  18.9293  19.0846  20.7674  20.8584
    21.7188  22.0609  22.7056  23.8994

          k = 0.0958 0.3833 0.3833 (   812 PWs)   bands (ev):

   -65.7066 -65.6667 -32.2358 -32.1682 -31.9010 -31.8031 -31.6995 -31.6342
    15.9282  16.6062  18.1117  18.3888  19.0331  19.4873  20.8144  21.1042
    21.4057  22.3482  22.4780  25.1072

          k = 0.0958 0.3833 0.4791 (   808 PWs)   bands (ev):

   -65.6919 -65.6782 -32.2431 -32.2194 -31.8663 -31.8322 -31.6644 -31.6416
    16.1410  16.3492  18.0506  18.1440  19.6213  19.8679  20.9975  21.1179
    21.6440  22.1193  23.0831  24.0115

          k = 0.0958 0.4791 0.4791 (   811 PWs)   bands (ev):

   -65.6858 -65.6811 -32.2649 -32.2577 -31.8522 -31.8405 -31.6425 -31.6349
    16.1119  16.1788  17.9205  17.9531  20.4121  20.6724  21.1516  21.2084
    21.4702  21.8580  23.4345  23.7896

          k = 0.1916 0.1916 0.1916 (   802 PWs)   bands (ev):

   -65.7670 -65.6236 -32.0999 -32.0999 -31.9085 -31.8596 -31.6600 -31.6600
    14.0330  17.1599  17.1599  18.7372  18.7372  19.5201  20.8839  21.1027
    21.1027  21.8360  21.8360  30.1983

          k = 0.1916 0.1916 0.2875 (   809 PWs)   bands (ev):

   -65.7484 -65.6367 -32.1382 -32.0499 -31.9826 -31.8058 -31.7073 -31.6568
    14.7696  17.4039  17.4413  18.5738  18.5795  19.0039  20.9440  21.2937
    21.3202  21.4253  21.9705  28.0381

          k = 0.1916 0.1916 0.3833 (   800 PWs)   bands (ev):

   -65.7254 -65.6545 -32.1567 -32.0547 -31.9852 -31.7676 -31.7569 -31.6638
    15.6131  17.3812  17.6934  18.4108  18.6062  18.8733  20.7768  20.9113
    21.4824  21.9162  22.0564  25.9096

          k = 0.1916 0.1916 0.4791 (   805 PWs)   bands (ev):

   -65.7006 -65.6763 -32.1488 -32.1131 -31.9128 -31.8382 -31.7166 -31.6849
    16.3749  16.9701  17.9735  18.2132  18.7916  18.9169  20.6558  20.6835
    21.6200  21.7607  22.9106  24.1647

          k = 0.1916 0.2875 0.2875 (   808 PWs)   bands (ev):

   -65.7332 -65.6462 -32.1507 -32.0476 -32.0376 -31.7581 -31.7301 -31.6655
    15.4181  17.4154  17.8900  18.3320  18.4812  18.5397  21.0765  21.1983
    21.2851  21.9221  22.0155  28.0748

          k = 0.1916 0.2875 0.3833 (   807 PWs)   bands (ev):

   -65.7147 -65.6595 -32.1736 -32.1093 -31.9836 -31.7813 -31.7201 -31.6676
    16.0710  17.2433  18.0860  18.1901  18.5478  18.5777  20.9967  21.0221
    21.4354  21.8990  22.6798  26.4707

          k = 0.1916 0.2875 0.4791 (   803 PWs)   bands (ev):

   -65.6950 -65.6761 -32.1776 -32.1549 -31.9159 -31.8458 -31.6929 -31.6747
    16.5670  16.9314  18.0758  18.1124  18.7706  18.8226  20.9265  20.9489
    21.6006  21.7617  23.5434  24.7954

          k = 0.1916 0.3833 0.3833 (   802 PWs)   bands (ev):

   -65.7020 -65.6669 -32.1968 -32.1598 -31.9491 -31.8088 -31.6945 -31.6696
    16.3856  16.9585  18.0235  18.1647  18.8432  18.8720  21.0458  21.1766
    21.4180  21.8819  23.3585  26.2750

          k = 0.1916 0.3833 0.4791 (   803 PWs)   bands (ev):

   -65.6889 -65.6769 -32.2076 -32.1950 -31.9008 -31.8511 -31.6790 -31.6718
    16.5532  16.7212  17.9596  18.0165  19.2594  19.2695  21.1215  21.1750
    21.5334  21.7285  24.1617  25.2195

          k = 0.1916 0.4791 0.4791 (   816 PWs)   bands (ev):

   -65.6834 -65.6793 -32.2254 -32.2212 -31.8794 -31.8616 -31.6740 -31.6724
    16.5105  16.5599  17.8529  17.8813  19.7726  19.7983  21.2384  21.2687
    21.4814  21.5881  24.7363  25.1840

          k = 0.2875 0.2875 0.2875 (   805 PWs)   bands (ev):

   -65.7207 -65.6530 -32.0944 -32.0944 -32.0900 -31.7246 -31.7176 -31.7176
    16.0681  17.9232  17.9232  18.0027  18.1862  18.1862  21.2404  21.2404
    21.5035  21.5035  22.7190  29.3444

          k = 0.2875 0.2875 0.3833 (   802 PWs)   bands (ev):

   -65.7057 -65.6628 -32.1380 -32.1296 -32.0238 -31.7845 -31.7040 -31.7038
    16.6631  17.5432  17.9325  18.0614  18.1943  18.4228  21.1818  21.2326
    21.4132  21.6318  23.4884  27.4629

          k = 0.2875 0.2875 0.4791 (   810 PWs)   bands (ev):

   -65.6901 -65.6753 -32.1599 -32.1558 -31.9444 -31.8622 -31.6959 -31.6948
    16.9855  17.2196  17.9410  17.9766  18.4961  18.6537  21.1223  21.1264
    21.5397  21.6210  24.4363  25.7424

          k = 0.2875 0.3833 0.3833 (   807 PWs)   bands (ev):

   -65.6953 -65.6680 -32.1502 -32.1370 -32.0070 -31.8102 -31.7262 -31.7001
    17.0500  17.3442  17.9236  18.0326  18.2880  18.5590  21.2783  21.2941
    21.4213  21.5812  24.3387  27.6872

          k = 0.2875 0.3833 0.4791 (   806 PWs)   bands (ev):

   -65.6847 -65.6754 -32.1609 -32.1554 -31.9432 -31.8714 -31.7196 -31.7068
    17.1115  17.1756  17.8807  17.9345  18.6732  18.8005  21.2776  21.2920
    21.5030  21.5629  25.3161  26.5320

          k = 0.2875 0.4791 0.4791 (   811 PWs)   bands (ev):

   -65.6801 -65.6769 -32.1645 -32.1619 -31.9167 -31.8869 -31.7313 -31.7237
    17.0749  17.0783  17.7966  17.8247  19.0450  19.0909  21.3508  21.3649
    21.4976  21.5256  26.1585  26.7417

          k = 0.3833 0.3833 0.3833 (   813 PWs)   bands (ev):

   -65.6877 -65.6704 -32.1407 -32.0602 -32.0602 -31.7998 -31.7998 -31.7180
    17.4330  17.7290  17.8660  17.8660  18.2608  18.2608  21.4112  21.4112
    21.4429  21.4429  25.3520  29.2583

          k = 0.3833 0.3833 0.4791 (   806 PWs)   bands (ev):

   -65.6805 -65.6745 -32.1262 -32.0999 -31.9730 -31.8837 -31.7756 -31.7456
    17.4231  17.5382  17.8950  18.0296  18.3130  18.4734  21.4049  21.4061
    21.4951  21.5139  26.4684  27.8013

          k = 0.3833 0.4791 0.4791 (   813 PWs)   bands (ev):

   -65.6770 -65.6749 -32.0979 -32.0813 -31.9541 -31.9044 -31.8085 -31.7864
    17.5159  17.6297  17.7912  17.9112  18.4707  18.5300  21.4557  21.4562
    21.5052  21.5160  27.6048  28.4252

          k = 0.4791 0.4791 0.4791 (   819 PWs)   bands (ev):

   -65.6748 -65.6741 -32.0346 -31.9907 -31.9907 -31.8978 -31.8978 -31.8505
    17.7267  17.8862  17.8862  18.1277  18.1277  18.1787  21.5087  21.5087
    21.5184  21.5184  29.0161  30.2122

     the Fermi energy is    21.2478 ev

!    total energy              =    -653.73712103 Ry
     total all-electron energy =     -5086.388540 Ry
     estimated scf accuracy    <          4.6E-12 Ry
     smearing contrib. (-TS)   =      -0.01638388 Ry
     internal energy E=F+TS    =    -653.72073715 Ry

     The total energy is F=E-TS. E is the sum of the following terms:
     one-electron contribution =    -195.35669889 Ry
     hartree contribution      =     120.89530015 Ry
     xc contribution           =     -54.80493587 Ry
     ewald contribution        =    -363.01188731 Ry
     one-center paw contrib.   =    -161.44251524 Ry

     convergence has been achieved in  12 iterations

     Forces acting on atoms (cartesian axes, Ry/au):

     atom    1 type  1   force =     0.00000000    0.00000000    0.00000000
     atom    2 type  1   force =     0.00000000    0.00000000    0.00000000

     Total force =     0.000000     Total SCF correction =     0.000000


     Computing stress (Cartesian axis) and pressure

          total   stress  (Ry/bohr**3)                   (kbar)     P=     -233.95
  -0.00159038   0.00000000   0.00000000         -233.95        0.00        0.00
   0.00000000  -0.00159038   0.00000000            0.00     -233.95        0.00
   0.00000000   0.00000000  -0.00159038            0.00        0.00     -233.95


     Writing all to output data dir ./temp/fe-afm.save/ :
     XML data file, charge density, pseudopotentials, collected wavefunctions

     init_run     :      8.00s CPU      8.32s WALL (       2 calls)
     electrons    :    379.80s CPU    407.29s WALL (       6 calls)
     update_pot   :      2.01s CPU      2.07s WALL (       4 calls)
     forces       :      5.34s CPU      5.46s WALL (       6 calls)
     stress       :     23.34s CPU     24.10s WALL (       6 calls)

     Called by init_run:
     wfcinit      :      2.63s CPU      2.71s WALL (       2 calls)
     potinit      :      1.25s CPU      1.28s WALL (       2 calls)
     hinit0       :      3.54s CPU      3.67s WALL (       2 calls)

     Called by electrons:
     c_bands      :    293.34s CPU    314.81s WALL (      61 calls)
     sum_band     :     46.16s CPU     49.83s WALL (      61 calls)
     v_of_rho     :      2.08s CPU      2.27s WALL (      64 calls)
     newd         :     12.52s CPU     13.18s WALL (      64 calls)
     PAW_pot      :     30.93s CPU     32.42s WALL (      68 calls)
     mix_rho      :      0.23s CPU      0.24s WALL (      61 calls)

     Called by c_bands:
     init_us_2    :      4.64s CPU      4.91s WALL (    7840 calls)
     cegterg      :    283.29s CPU    304.20s WALL (    3416 calls)

     Called by *egterg:
     cdiaghg      :     17.56s CPU     18.62s WALL (   12187 calls)
     h_psi        :    148.83s CPU    162.45s WALL (   12691 calls)
     s_psi        :     21.35s CPU     22.37s WALL (   12691 calls)
     g_psi        :      0.98s CPU      1.04s WALL (    9163 calls)

     Called by h_psi:
     h_psi:calbec :     22.20s CPU     24.35s WALL (   12691 calls)
     vloc_psi     :    104.65s CPU    114.88s WALL (   12691 calls)
     add_vuspsi   :     21.33s CPU     22.55s WALL (   12691 calls)

     General routines
     calbec       :     35.35s CPU     38.51s WALL (   18011 calls)
     fft          :      1.34s CPU      1.42s WALL (     977 calls)
     ffts         :      0.18s CPU      0.18s WALL (     125 calls)
     fftw         :    104.56s CPU    114.98s WALL (  438220 calls)
     interpolate  :      0.25s CPU      0.27s WALL (      64 calls)

     Parallel routines

     PWSCF        :   7m 2.66s CPU   7m31.62s WALL


   This run was terminated on:   7:17: 8  23Dec2024            

=------------------------------------------------------------------------------=
   JOB DONE.
=------------------------------------------------------------------------------=
