
     Program PWSCF v.7.3.1 starts on 11Dec2025 at 14:56:16 

     This program is part of the open-source Quantum ESPRESSO suite
     for quantum simulation of materials; please cite
         "P. Giannozzi et al., J. Phys.:Condens. Matter 21 395502 (2009);
         "P. Giannozzi et al., J. Phys.:Condens. Matter 29 465901 (2017);
         "P. Giannozzi et al., J. Chem. Phys. 152 154105 (2020);
          URL http://www.quantum-espresso.org", 
     in publications or presentations arising from this work. More details at
     http://www.quantum-espresso.org/quote

     Parallel version (MPI), running on     6 processors

     MPI processes distributed on     1 nodes
     21722 MiB available memory on the printing compute node when the environment starts

     Reading input from scf-fm/scf-fm.in

     Current dimensions of program PWSCF are:
     Max number of different atomic species (ntypx) = 10
     Max number of k-points (npk) =  40000
     Max angular momentum in pseudopotentials (lmaxx) =  4
     file Fe.pbesol-spn-kjpaw_psl.1.0.0.UPF: wavefunction(s)  3P 3D renormalized
     file Fe.pbesol-spn-kjpaw_psl.1.0.0.UPF: wavefunction(s)  3P 3D renormalized

     R & G space division:  proc/nbgrp/npool/nimage =       6
     Subspace diagonalization in iterative solution of the eigenvalue problem:
     a serial algorithm will be used


     Parallelization info
     --------------------
     sticks:   dense  smooth     PW     G-vecs:    dense   smooth      PW
     Min         337     167     48                11479     4049     644
     Max         338     168     49                11484     4052     649
     Sum        2025    1005    293                68891    24303    3887

     Using Slab Decomposition



     bravais-lattice index     =            1
     lattice parameter (alat)  =       5.1560  a.u.
     unit-cell volume          =     137.0681 (a.u.)^3
     number of atoms/cell      =            2
     number of atomic types    =            2
     number of electrons       =        32.00
     number of Kohn-Sham states=           20
     kinetic-energy cutoff     =     120.0000  Ry
     charge density cutoff     =     960.0000  Ry
     scf convergence threshold =      1.0E-10
     mixing beta               =       0.7000
     number of iterations used =            8  plain     mixing
     Exchange-correlation= SLA  PW   PSX  PSC
                           (   1   4  10   8   0   0   0)

     celldm(1)=   5.155990  celldm(2)=   0.000000  celldm(3)=   0.000000
     celldm(4)=   0.000000  celldm(5)=   0.000000  celldm(6)=   0.000000

     crystal axes: (cart. coord. in units of alat)
               a(1) = (   1.000000   0.000000   0.000000 )  
               a(2) = (   0.000000   1.000000   0.000000 )  
               a(3) = (   0.000000   0.000000   1.000000 )  

     reciprocal axes: (cart. coord. in units 2 pi/alat)
               b(1) = (  1.000000  0.000000  0.000000 )  
               b(2) = (  0.000000  1.000000  0.000000 )  
               b(3) = (  0.000000  0.000000  1.000000 )  


     PseudoPot. # 1 for Fe read from file:
     ./../../../pseudos/Fe.pbesol-spn-kjpaw_psl.1.0.0.UPF
     MD5 check sum: e30d5f36a6f0cb983ee41abee56170da
     Pseudo is Projector augmented-wave + core cor, Zval = 16.0
     Generated using &quot;atomic&quot; code by A. Dal Corso  v.6.3
     Shape of augmentation charge: PSQ
     Using radial grid of 1191 points,  6 beta functions with: 
                l(1) =   0
                l(2) =   0
                l(3) =   1
                l(4) =   1
                l(5) =   2
                l(6) =   2
     Q(r) pseudized with 0 coefficients 


     PseudoPot. # 2 for Fe read from file:
     ./../../../pseudos/Fe.pbesol-spn-kjpaw_psl.1.0.0.UPF
     MD5 check sum: e30d5f36a6f0cb983ee41abee56170da
     Pseudo is Projector augmented-wave + core cor, Zval = 16.0
     Generated using &quot;atomic&quot; code by A. Dal Corso  v.6.3
     Shape of augmentation charge: PSQ
     Using radial grid of 1191 points,  6 beta functions with: 
                l(1) =   0
                l(2) =   0
                l(3) =   1
                l(4) =   1
                l(5) =   2
                l(6) =   2
     Q(r) pseudized with 0 coefficients 


     atomic species   valence    mass     pseudopotential
     Fe1              16.00    55.84500     Fe( 1.00)
     Fe2              16.00    55.84500     Fe( 1.00)

     Starting magnetic structure 
     atomic species   magnetization
     Fe1             0.300
     Fe2             0.300

     48 Sym. Ops., with inversion, found


                                    s                        frac. trans.

      isym =  1     identity                                     

 cryst.   s( 1) = (     1          0          0      )
                  (     0          1          0      )
                  (     0          0          1      )

 cart.    s( 1) = (  1.0000000  0.0000000  0.0000000 )
                  (  0.0000000  1.0000000  0.0000000 )
                  (  0.0000000  0.0000000  1.0000000 )


      isym =  2     180 deg rotation - cart. axis [0,0,1]        

 cryst.   s( 2) = (    -1          0          0      )
                  (     0         -1          0      )
                  (     0          0          1      )

 cart.    s( 2) = ( -1.0000000  0.0000000  0.0000000 )
                  (  0.0000000 -1.0000000  0.0000000 )
                  (  0.0000000  0.0000000  1.0000000 )


      isym =  3     180 deg rotation - cart. axis [0,1,0]        

 cryst.   s( 3) = (    -1          0          0      )
                  (     0          1          0      )
                  (     0          0         -1      )

 cart.    s( 3) = ( -1.0000000  0.0000000  0.0000000 )
                  (  0.0000000  1.0000000  0.0000000 )
                  (  0.0000000  0.0000000 -1.0000000 )


      isym =  4     180 deg rotation - cart. axis [1,0,0]        

 cryst.   s( 4) = (     1          0          0      )
                  (     0         -1          0      )
                  (     0          0         -1      )

 cart.    s( 4) = (  1.0000000  0.0000000  0.0000000 )
                  (  0.0000000 -1.0000000  0.0000000 )
                  (  0.0000000  0.0000000 -1.0000000 )


      isym =  5     180 deg rotation - cart. axis [1,1,0]        

 cryst.   s( 5) = (     0          1          0      )
                  (     1          0          0      )
                  (     0          0         -1      )

 cart.    s( 5) = (  0.0000000  1.0000000  0.0000000 )
                  (  1.0000000  0.0000000  0.0000000 )
                  (  0.0000000  0.0000000 -1.0000000 )


      isym =  6     180 deg rotation - cart. axis [1,-1,0]       

 cryst.   s( 6) = (     0         -1          0      )
                  (    -1          0          0      )
                  (     0          0         -1      )

 cart.    s( 6) = (  0.0000000 -1.0000000  0.0000000 )
                  ( -1.0000000  0.0000000  0.0000000 )
                  (  0.0000000  0.0000000 -1.0000000 )


      isym =  7      90 deg rotation - cart. axis [0,0,-1]       

 cryst.   s( 7) = (     0         -1          0      )
                  (     1          0          0      )
                  (     0          0          1      )

 cart.    s( 7) = (  0.0000000  1.0000000  0.0000000 )
                  ( -1.0000000  0.0000000  0.0000000 )
                  (  0.0000000  0.0000000  1.0000000 )


      isym =  8      90 deg rotation - cart. axis [0,0,1]        

 cryst.   s( 8) = (     0          1          0      )
                  (    -1          0          0      )
                  (     0          0          1      )

 cart.    s( 8) = (  0.0000000 -1.0000000  0.0000000 )
                  (  1.0000000  0.0000000  0.0000000 )
                  (  0.0000000  0.0000000  1.0000000 )


      isym =  9     180 deg rotation - cart. axis [1,0,1]        

 cryst.   s( 9) = (     0          0          1      )
                  (     0         -1          0      )
                  (     1          0          0      )

 cart.    s( 9) = (  0.0000000  0.0000000  1.0000000 )
                  (  0.0000000 -1.0000000  0.0000000 )
                  (  1.0000000  0.0000000  0.0000000 )


      isym = 10     180 deg rotation - cart. axis [-1,0,1]       

 cryst.   s(10) = (     0          0         -1      )
                  (     0         -1          0      )
                  (    -1          0          0      )

 cart.    s(10) = (  0.0000000  0.0000000 -1.0000000 )
                  (  0.0000000 -1.0000000  0.0000000 )
                  ( -1.0000000  0.0000000  0.0000000 )


      isym = 11      90 deg rotation - cart. axis [0,1,0]        

 cryst.   s(11) = (     0          0         -1      )
                  (     0          1          0      )
                  (     1          0          0      )

 cart.    s(11) = (  0.0000000  0.0000000  1.0000000 )
                  (  0.0000000  1.0000000  0.0000000 )
                  ( -1.0000000  0.0000000  0.0000000 )


      isym = 12      90 deg rotation - cart. axis [0,-1,0]       

 cryst.   s(12) = (     0          0          1      )
                  (     0          1          0      )
                  (    -1          0          0      )

 cart.    s(12) = (  0.0000000  0.0000000 -1.0000000 )
                  (  0.0000000  1.0000000  0.0000000 )
                  (  1.0000000  0.0000000  0.0000000 )


      isym = 13     180 deg rotation - cart. axis [0,1,1]        

 cryst.   s(13) = (    -1          0          0      )
                  (     0          0          1      )
                  (     0          1          0      )

 cart.    s(13) = ( -1.0000000  0.0000000  0.0000000 )
                  (  0.0000000  0.0000000  1.0000000 )
                  (  0.0000000  1.0000000  0.0000000 )


      isym = 14     180 deg rotation - cart. axis [0,1,-1]       

 cryst.   s(14) = (    -1          0          0      )
                  (     0          0         -1      )
                  (     0         -1          0      )

 cart.    s(14) = ( -1.0000000  0.0000000  0.0000000 )
                  (  0.0000000  0.0000000 -1.0000000 )
                  (  0.0000000 -1.0000000  0.0000000 )


      isym = 15      90 deg rotation - cart. axis [-1,0,0]       

 cryst.   s(15) = (     1          0          0      )
                  (     0          0         -1      )
                  (     0          1          0      )

 cart.    s(15) = (  1.0000000  0.0000000  0.0000000 )
                  (  0.0000000  0.0000000  1.0000000 )
                  (  0.0000000 -1.0000000  0.0000000 )


      isym = 16      90 deg rotation - cart. axis [1,0,0]        

 cryst.   s(16) = (     1          0          0      )
                  (     0          0          1      )
                  (     0         -1          0      )

 cart.    s(16) = (  1.0000000  0.0000000  0.0000000 )
                  (  0.0000000  0.0000000 -1.0000000 )
                  (  0.0000000  1.0000000  0.0000000 )


      isym = 17     120 deg rotation - cart. axis [-1,-1,-1]     

 cryst.   s(17) = (     0          0          1      )
                  (     1          0          0      )
                  (     0          1          0      )

 cart.    s(17) = (  0.0000000  1.0000000  0.0000000 )
                  (  0.0000000  0.0000000  1.0000000 )
                  (  1.0000000  0.0000000  0.0000000 )


      isym = 18     120 deg rotation - cart. axis [-1,1,1]       

 cryst.   s(18) = (     0          0         -1      )
                  (    -1          0          0      )
                  (     0          1          0      )

 cart.    s(18) = (  0.0000000 -1.0000000  0.0000000 )
                  (  0.0000000  0.0000000  1.0000000 )
                  ( -1.0000000  0.0000000  0.0000000 )


      isym = 19     120 deg rotation - cart. axis [1,1,-1]       

 cryst.   s(19) = (     0          0         -1      )
                  (     1          0          0      )
                  (     0         -1          0      )

 cart.    s(19) = (  0.0000000  1.0000000  0.0000000 )
                  (  0.0000000  0.0000000 -1.0000000 )
                  ( -1.0000000  0.0000000  0.0000000 )


      isym = 20     120 deg rotation - cart. axis [1,-1,1]       

 cryst.   s(20) = (     0          0          1      )
                  (    -1          0          0      )
                  (     0         -1          0      )

 cart.    s(20) = (  0.0000000 -1.0000000  0.0000000 )
                  (  0.0000000  0.0000000 -1.0000000 )
                  (  1.0000000  0.0000000  0.0000000 )


      isym = 21     120 deg rotation - cart. axis [1,1,1]        

 cryst.   s(21) = (     0          1          0      )
                  (     0          0          1      )
                  (     1          0          0      )

 cart.    s(21) = (  0.0000000  0.0000000  1.0000000 )
                  (  1.0000000  0.0000000  0.0000000 )
                  (  0.0000000  1.0000000  0.0000000 )


      isym = 22     120 deg rotation - cart. axis [-1,1,-1]      

 cryst.   s(22) = (     0         -1          0      )
                  (     0          0         -1      )
                  (     1          0          0      )

 cart.    s(22) = (  0.0000000  0.0000000  1.0000000 )
                  ( -1.0000000  0.0000000  0.0000000 )
                  (  0.0000000 -1.0000000  0.0000000 )


      isym = 23     120 deg rotation - cart. axis [1,-1,-1]      

 cryst.   s(23) = (     0         -1          0      )
                  (     0          0          1      )
                  (    -1          0          0      )

 cart.    s(23) = (  0.0000000  0.0000000 -1.0000000 )
                  ( -1.0000000  0.0000000  0.0000000 )
                  (  0.0000000  1.0000000  0.0000000 )


      isym = 24     120 deg rotation - cart. axis [-1,-1,1]      

 cryst.   s(24) = (     0          1          0      )
                  (     0          0         -1      )
                  (    -1          0          0      )

 cart.    s(24) = (  0.0000000  0.0000000 -1.0000000 )
                  (  1.0000000  0.0000000  0.0000000 )
                  (  0.0000000 -1.0000000  0.0000000 )


      isym = 25     inversion                                    

 cryst.   s(25) = (    -1          0          0      )
                  (     0         -1          0      )
                  (     0          0         -1      )

 cart.    s(25) = ( -1.0000000  0.0000000  0.0000000 )
                  (  0.0000000 -1.0000000  0.0000000 )
                  (  0.0000000  0.0000000 -1.0000000 )


      isym = 26     inv. 180 deg rotation - cart. axis [0,0,1]   

 cryst.   s(26) = (     1          0          0      )
                  (     0          1          0      )
                  (     0          0         -1      )

 cart.    s(26) = (  1.0000000  0.0000000  0.0000000 )
                  (  0.0000000  1.0000000  0.0000000 )
                  (  0.0000000  0.0000000 -1.0000000 )


      isym = 27     inv. 180 deg rotation - cart. axis [0,1,0]   

 cryst.   s(27) = (     1          0          0      )
                  (     0         -1          0      )
                  (     0          0          1      )

 cart.    s(27) = (  1.0000000  0.0000000  0.0000000 )
                  (  0.0000000 -1.0000000  0.0000000 )
                  (  0.0000000  0.0000000  1.0000000 )


      isym = 28     inv. 180 deg rotation - cart. axis [1,0,0]   

 cryst.   s(28) = (    -1          0          0      )
                  (     0          1          0      )
                  (     0          0          1      )

 cart.    s(28) = ( -1.0000000  0.0000000  0.0000000 )
                  (  0.0000000  1.0000000  0.0000000 )
                  (  0.0000000  0.0000000  1.0000000 )


      isym = 29     inv. 180 deg rotation - cart. axis [1,1,0]   

 cryst.   s(29) = (     0         -1          0      )
                  (    -1          0          0      )
                  (     0          0          1      )

 cart.    s(29) = (  0.0000000 -1.0000000  0.0000000 )
                  ( -1.0000000  0.0000000  0.0000000 )
                  (  0.0000000  0.0000000  1.0000000 )


      isym = 30     inv. 180 deg rotation - cart. axis [1,-1,0]  

 cryst.   s(30) = (     0          1          0      )
                  (     1          0          0      )
                  (     0          0          1      )

 cart.    s(30) = (  0.0000000  1.0000000  0.0000000 )
                  (  1.0000000  0.0000000  0.0000000 )
                  (  0.0000000  0.0000000  1.0000000 )


      isym = 31     inv.  90 deg rotation - cart. axis [0,0,-1]  

 cryst.   s(31) = (     0          1          0      )
                  (    -1          0          0      )
                  (     0          0         -1      )

 cart.    s(31) = (  0.0000000 -1.0000000  0.0000000 )
                  (  1.0000000  0.0000000  0.0000000 )
                  (  0.0000000  0.0000000 -1.0000000 )


      isym = 32     inv.  90 deg rotation - cart. axis [0,0,1]   

 cryst.   s(32) = (     0         -1          0      )
                  (     1          0          0      )
                  (     0          0         -1      )

 cart.    s(32) = (  0.0000000  1.0000000  0.0000000 )
                  ( -1.0000000  0.0000000  0.0000000 )
                  (  0.0000000  0.0000000 -1.0000000 )


      isym = 33     inv. 180 deg rotation - cart. axis [1,0,1]   

 cryst.   s(33) = (     0          0         -1      )
                  (     0          1          0      )
                  (    -1          0          0      )

 cart.    s(33) = (  0.0000000  0.0000000 -1.0000000 )
                  (  0.0000000  1.0000000  0.0000000 )
                  ( -1.0000000  0.0000000  0.0000000 )


      isym = 34     inv. 180 deg rotation - cart. axis [-1,0,1]  

 cryst.   s(34) = (     0          0          1      )
                  (     0          1          0      )
                  (     1          0          0      )

 cart.    s(34) = (  0.0000000  0.0000000  1.0000000 )
                  (  0.0000000  1.0000000  0.0000000 )
                  (  1.0000000  0.0000000  0.0000000 )


      isym = 35     inv.  90 deg rotation - cart. axis [0,1,0]   

 cryst.   s(35) = (     0          0          1      )
                  (     0         -1          0      )
                  (    -1          0          0      )

 cart.    s(35) = (  0.0000000  0.0000000 -1.0000000 )
                  (  0.0000000 -1.0000000  0.0000000 )
                  (  1.0000000  0.0000000  0.0000000 )


      isym = 36     inv.  90 deg rotation - cart. axis [0,-1,0]  

 cryst.   s(36) = (     0          0         -1      )
                  (     0         -1          0      )
                  (     1          0          0      )

 cart.    s(36) = (  0.0000000  0.0000000  1.0000000 )
                  (  0.0000000 -1.0000000  0.0000000 )
                  ( -1.0000000  0.0000000  0.0000000 )


      isym = 37     inv. 180 deg rotation - cart. axis [0,1,1]   

 cryst.   s(37) = (     1          0          0      )
                  (     0          0         -1      )
                  (     0         -1          0      )

 cart.    s(37) = (  1.0000000  0.0000000  0.0000000 )
                  (  0.0000000  0.0000000 -1.0000000 )
                  (  0.0000000 -1.0000000  0.0000000 )


      isym = 38     inv. 180 deg rotation - cart. axis [0,1,-1]  

 cryst.   s(38) = (     1          0          0      )
                  (     0          0          1      )
                  (     0          1          0      )

 cart.    s(38) = (  1.0000000  0.0000000  0.0000000 )
                  (  0.0000000  0.0000000  1.0000000 )
                  (  0.0000000  1.0000000  0.0000000 )


      isym = 39     inv.  90 deg rotation - cart. axis [-1,0,0]  

 cryst.   s(39) = (    -1          0          0      )
                  (     0          0          1      )
                  (     0         -1          0      )

 cart.    s(39) = ( -1.0000000  0.0000000  0.0000000 )
                  (  0.0000000  0.0000000 -1.0000000 )
                  (  0.0000000  1.0000000  0.0000000 )


      isym = 40     inv.  90 deg rotation - cart. axis [1,0,0]   

 cryst.   s(40) = (    -1          0          0      )
                  (     0          0         -1      )
                  (     0          1          0      )

 cart.    s(40) = ( -1.0000000  0.0000000  0.0000000 )
                  (  0.0000000  0.0000000  1.0000000 )
                  (  0.0000000 -1.0000000  0.0000000 )


      isym = 41     inv. 120 deg rotation - cart. axis [-1,-1,-1]

 cryst.   s(41) = (     0          0         -1      )
                  (    -1          0          0      )
                  (     0         -1          0      )

 cart.    s(41) = (  0.0000000 -1.0000000  0.0000000 )
                  (  0.0000000  0.0000000 -1.0000000 )
                  ( -1.0000000  0.0000000  0.0000000 )


      isym = 42     inv. 120 deg rotation - cart. axis [-1,1,1]  

 cryst.   s(42) = (     0          0          1      )
                  (     1          0          0      )
                  (     0         -1          0      )

 cart.    s(42) = (  0.0000000  1.0000000  0.0000000 )
                  (  0.0000000  0.0000000 -1.0000000 )
                  (  1.0000000  0.0000000  0.0000000 )


      isym = 43     inv. 120 deg rotation - cart. axis [1,1,-1]  

 cryst.   s(43) = (     0          0          1      )
                  (    -1          0          0      )
                  (     0          1          0      )

 cart.    s(43) = (  0.0000000 -1.0000000  0.0000000 )
                  (  0.0000000  0.0000000  1.0000000 )
                  (  1.0000000  0.0000000  0.0000000 )


      isym = 44     inv. 120 deg rotation - cart. axis [1,-1,1]  

 cryst.   s(44) = (     0          0         -1      )
                  (     1          0          0      )
                  (     0          1          0      )

 cart.    s(44) = (  0.0000000  1.0000000  0.0000000 )
                  (  0.0000000  0.0000000  1.0000000 )
                  ( -1.0000000  0.0000000  0.0000000 )


      isym = 45     inv. 120 deg rotation - cart. axis [1,1,1]   

 cryst.   s(45) = (     0         -1          0      )
                  (     0          0         -1      )
                  (    -1          0          0      )

 cart.    s(45) = (  0.0000000  0.0000000 -1.0000000 )
                  ( -1.0000000  0.0000000  0.0000000 )
                  (  0.0000000 -1.0000000  0.0000000 )


      isym = 46     inv. 120 deg rotation - cart. axis [-1,1,-1] 

 cryst.   s(46) = (     0          1          0      )
                  (     0          0          1      )
                  (    -1          0          0      )

 cart.    s(46) = (  0.0000000  0.0000000 -1.0000000 )
                  (  1.0000000  0.0000000  0.0000000 )
                  (  0.0000000  1.0000000  0.0000000 )


      isym = 47     inv. 120 deg rotation - cart. axis [1,-1,-1] 

 cryst.   s(47) = (     0          1          0      )
                  (     0          0         -1      )
                  (     1          0          0      )

 cart.    s(47) = (  0.0000000  0.0000000  1.0000000 )
                  (  1.0000000  0.0000000  0.0000000 )
                  (  0.0000000 -1.0000000  0.0000000 )


      isym = 48     inv. 120 deg rotation - cart. axis [-1,-1,1] 

 cryst.   s(48) = (     0         -1          0      )
                  (     0          0          1      )
                  (     1          0          0      )

 cart.    s(48) = (  0.0000000  0.0000000  1.0000000 )
                  ( -1.0000000  0.0000000  0.0000000 )
                  (  0.0000000  1.0000000  0.0000000 )


     point group O_h (m-3m) 
     there are 10 classes
     the character table:

       E     8C3   3C2   6C4   6C2'  i     8S6   3s_h  6S4   6s_d 
A_1g   1.00  1.00  1.00  1.00  1.00  1.00  1.00  1.00  1.00  1.00
A_2g   1.00  1.00  1.00 -1.00 -1.00  1.00  1.00  1.00 -1.00 -1.00
E_g    2.00 -1.00  2.00  0.00  0.00  2.00 -1.00  2.00  0.00  0.00
T_1g   3.00  0.00 -1.00  1.00 -1.00  3.00  0.00 -1.00  1.00 -1.00
T_2g   3.00  0.00 -1.00 -1.00  1.00  3.00  0.00 -1.00 -1.00  1.00
A_1u   1.00  1.00  1.00  1.00  1.00 -1.00 -1.00 -1.00 -1.00 -1.00
A_2u   1.00  1.00  1.00 -1.00 -1.00 -1.00 -1.00 -1.00  1.00  1.00
E_u    2.00 -1.00  2.00  0.00  0.00 -2.00  1.00 -2.00  0.00  0.00
T_1u   3.00  0.00 -1.00  1.00 -1.00 -3.00  0.00  1.00 -1.00  1.00
T_2u   3.00  0.00 -1.00 -1.00  1.00 -3.00  0.00  1.00  1.00 -1.00

     the symmetry operations in each class and the name of the first element:

     E        1
          identity                                               
     8C3     17   19   20   18   24   21   22   23
          120 deg rotation - cart. axis [-1,-1,-1]               
     3C2      2    4    3
          180 deg rotation - cart. axis [0,0,1]                  
     6C4      7    8   15   16   12   11
           90 deg rotation - cart. axis [0,0,-1]                 
     6C2'     5    6   14   13   10    9
          180 deg rotation - cart. axis [1,1,0]                  
     i       25
          inversion                                              
     8S6     41   43   44   42   48   45   46   47
          inv. 120 deg rotation - cart. axis [-1,-1,-1]          
     3s_h    26   28   27
          inv. 180 deg rotation - cart. axis [0,0,1]             
     6S4     31   32   39   40   36   35
          inv.  90 deg rotation - cart. axis [0,0,-1]            
     6s_d    29   30   38   37   34   33
          inv. 180 deg rotation - cart. axis [1,1,0]             

   Cartesian axes

     site n.     atom                  positions (alat units)
         1        Fe1    tau(   1) = (   0.0000000   0.0000000   0.0000000  )
         2        Fe2    tau(   2) = (   0.5000000   0.5000000   0.5000000  )

   Crystallographic axes

     site n.     atom                  positions (cryst. coord.)
         1        Fe1    tau(   1) = (  0.0000000  0.0000000  0.0000000  )
         2        Fe2    tau(   2) = (  0.5000000  0.5000000  0.5000000  )

     number of k points=    56  Gaussian smearing, width (Ry)=  0.0200
                       cart. coord. in units 2pi/alat
        k(    1) = (   0.0000000   0.0000000   0.0000000), wk =   0.0007513
        k(    2) = (   0.0000000   0.0000000   0.0909091), wk =   0.0045079
        k(    3) = (   0.0000000   0.0000000   0.1818182), wk =   0.0045079
        k(    4) = (   0.0000000   0.0000000   0.2727273), wk =   0.0045079
        k(    5) = (   0.0000000   0.0000000   0.3636364), wk =   0.0045079
        k(    6) = (   0.0000000   0.0000000   0.4545455), wk =   0.0045079
        k(    7) = (   0.0000000   0.0909091   0.0909091), wk =   0.0090158
        k(    8) = (   0.0000000   0.0909091   0.1818182), wk =   0.0180316
        k(    9) = (   0.0000000   0.0909091   0.2727273), wk =   0.0180316
        k(   10) = (   0.0000000   0.0909091   0.3636364), wk =   0.0180316
        k(   11) = (   0.0000000   0.0909091   0.4545455), wk =   0.0180316
        k(   12) = (   0.0000000   0.1818182   0.1818182), wk =   0.0090158
        k(   13) = (   0.0000000   0.1818182   0.2727273), wk =   0.0180316
        k(   14) = (   0.0000000   0.1818182   0.3636364), wk =   0.0180316
        k(   15) = (   0.0000000   0.1818182   0.4545455), wk =   0.0180316
        k(   16) = (   0.0000000   0.2727273   0.2727273), wk =   0.0090158
        k(   17) = (   0.0000000   0.2727273   0.3636364), wk =   0.0180316
        k(   18) = (   0.0000000   0.2727273   0.4545455), wk =   0.0180316
        k(   19) = (   0.0000000   0.3636364   0.3636364), wk =   0.0090158
        k(   20) = (   0.0000000   0.3636364   0.4545455), wk =   0.0180316
        k(   21) = (   0.0000000   0.4545455   0.4545455), wk =   0.0090158
        k(   22) = (   0.0909091   0.0909091   0.0909091), wk =   0.0060105
        k(   23) = (   0.0909091   0.0909091   0.1818182), wk =   0.0180316
        k(   24) = (   0.0909091   0.0909091   0.2727273), wk =   0.0180316
        k(   25) = (   0.0909091   0.0909091   0.3636364), wk =   0.0180316
        k(   26) = (   0.0909091   0.0909091   0.4545455), wk =   0.0180316
        k(   27) = (   0.0909091   0.1818182   0.1818182), wk =   0.0180316
        k(   28) = (   0.0909091   0.1818182   0.2727273), wk =   0.0360631
        k(   29) = (   0.0909091   0.1818182   0.3636364), wk =   0.0360631
        k(   30) = (   0.0909091   0.1818182   0.4545455), wk =   0.0360631
        k(   31) = (   0.0909091   0.2727273   0.2727273), wk =   0.0180316
        k(   32) = (   0.0909091   0.2727273   0.3636364), wk =   0.0360631
        k(   33) = (   0.0909091   0.2727273   0.4545455), wk =   0.0360631
        k(   34) = (   0.0909091   0.3636364   0.3636364), wk =   0.0180316
        k(   35) = (   0.0909091   0.3636364   0.4545455), wk =   0.0360631
        k(   36) = (   0.0909091   0.4545455   0.4545455), wk =   0.0180316
        k(   37) = (   0.1818182   0.1818182   0.1818182), wk =   0.0060105
        k(   38) = (   0.1818182   0.1818182   0.2727273), wk =   0.0180316
        k(   39) = (   0.1818182   0.1818182   0.3636364), wk =   0.0180316
        k(   40) = (   0.1818182   0.1818182   0.4545455), wk =   0.0180316
        k(   41) = (   0.1818182   0.2727273   0.2727273), wk =   0.0180316
        k(   42) = (   0.1818182   0.2727273   0.3636364), wk =   0.0360631
        k(   43) = (   0.1818182   0.2727273   0.4545455), wk =   0.0360631
        k(   44) = (   0.1818182   0.3636364   0.3636364), wk =   0.0180316
        k(   45) = (   0.1818182   0.3636364   0.4545455), wk =   0.0360631
        k(   46) = (   0.1818182   0.4545455   0.4545455), wk =   0.0180316
        k(   47) = (   0.2727273   0.2727273   0.2727273), wk =   0.0060105
        k(   48) = (   0.2727273   0.2727273   0.3636364), wk =   0.0180316
        k(   49) = (   0.2727273   0.2727273   0.4545455), wk =   0.0180316
        k(   50) = (   0.2727273   0.3636364   0.3636364), wk =   0.0180316
        k(   51) = (   0.2727273   0.3636364   0.4545455), wk =   0.0360631
        k(   52) = (   0.2727273   0.4545455   0.4545455), wk =   0.0180316
        k(   53) = (   0.3636364   0.3636364   0.3636364), wk =   0.0060105
        k(   54) = (   0.3636364   0.3636364   0.4545455), wk =   0.0180316
        k(   55) = (   0.3636364   0.4545455   0.4545455), wk =   0.0180316
        k(   56) = (   0.4545455   0.4545455   0.4545455), wk =   0.0060105

                       cryst. coord.
        k(    1) = (   0.0000000   0.0000000   0.0000000), wk =   0.0007513
        k(    2) = (   0.0000000   0.0000000   0.0909091), wk =   0.0045079
        k(    3) = (   0.0000000   0.0000000   0.1818182), wk =   0.0045079
        k(    4) = (   0.0000000   0.0000000   0.2727273), wk =   0.0045079
        k(    5) = (   0.0000000   0.0000000   0.3636364), wk =   0.0045079
        k(    6) = (   0.0000000   0.0000000   0.4545455), wk =   0.0045079
        k(    7) = (   0.0000000   0.0909091   0.0909091), wk =   0.0090158
        k(    8) = (   0.0000000   0.0909091   0.1818182), wk =   0.0180316
        k(    9) = (   0.0000000   0.0909091   0.2727273), wk =   0.0180316
        k(   10) = (   0.0000000   0.0909091   0.3636364), wk =   0.0180316
        k(   11) = (   0.0000000   0.0909091   0.4545455), wk =   0.0180316
        k(   12) = (   0.0000000   0.1818182   0.1818182), wk =   0.0090158
        k(   13) = (   0.0000000   0.1818182   0.2727273), wk =   0.0180316
        k(   14) = (   0.0000000   0.1818182   0.3636364), wk =   0.0180316
        k(   15) = (   0.0000000   0.1818182   0.4545455), wk =   0.0180316
        k(   16) = (   0.0000000   0.2727273   0.2727273), wk =   0.0090158
        k(   17) = (   0.0000000   0.2727273   0.3636364), wk =   0.0180316
        k(   18) = (   0.0000000   0.2727273   0.4545455), wk =   0.0180316
        k(   19) = (   0.0000000   0.3636364   0.3636364), wk =   0.0090158
        k(   20) = (   0.0000000   0.3636364   0.4545455), wk =   0.0180316
        k(   21) = (   0.0000000   0.4545455   0.4545455), wk =   0.0090158
        k(   22) = (   0.0909091   0.0909091   0.0909091), wk =   0.0060105
        k(   23) = (   0.0909091   0.0909091   0.1818182), wk =   0.0180316
        k(   24) = (   0.0909091   0.0909091   0.2727273), wk =   0.0180316
        k(   25) = (   0.0909091   0.0909091   0.3636364), wk =   0.0180316
        k(   26) = (   0.0909091   0.0909091   0.4545455), wk =   0.0180316
        k(   27) = (   0.0909091   0.1818182   0.1818182), wk =   0.0180316
        k(   28) = (   0.0909091   0.1818182   0.2727273), wk =   0.0360631
        k(   29) = (   0.0909091   0.1818182   0.3636364), wk =   0.0360631
        k(   30) = (   0.0909091   0.1818182   0.4545455), wk =   0.0360631
        k(   31) = (   0.0909091   0.2727273   0.2727273), wk =   0.0180316
        k(   32) = (   0.0909091   0.2727273   0.3636364), wk =   0.0360631
        k(   33) = (   0.0909091   0.2727273   0.4545455), wk =   0.0360631
        k(   34) = (   0.0909091   0.3636364   0.3636364), wk =   0.0180316
        k(   35) = (   0.0909091   0.3636364   0.4545455), wk =   0.0360631
        k(   36) = (   0.0909091   0.4545455   0.4545455), wk =   0.0180316
        k(   37) = (   0.1818182   0.1818182   0.1818182), wk =   0.0060105
        k(   38) = (   0.1818182   0.1818182   0.2727273), wk =   0.0180316
        k(   39) = (   0.1818182   0.1818182   0.3636364), wk =   0.0180316
        k(   40) = (   0.1818182   0.1818182   0.4545455), wk =   0.0180316
        k(   41) = (   0.1818182   0.2727273   0.2727273), wk =   0.0180316
        k(   42) = (   0.1818182   0.2727273   0.3636364), wk =   0.0360631
        k(   43) = (   0.1818182   0.2727273   0.4545455), wk =   0.0360631
        k(   44) = (   0.1818182   0.3636364   0.3636364), wk =   0.0180316
        k(   45) = (   0.1818182   0.3636364   0.4545455), wk =   0.0360631
        k(   46) = (   0.1818182   0.4545455   0.4545455), wk =   0.0180316
        k(   47) = (   0.2727273   0.2727273   0.2727273), wk =   0.0060105
        k(   48) = (   0.2727273   0.2727273   0.3636364), wk =   0.0180316
        k(   49) = (   0.2727273   0.2727273   0.4545455), wk =   0.0180316
        k(   50) = (   0.2727273   0.3636364   0.3636364), wk =   0.0180316
        k(   51) = (   0.2727273   0.3636364   0.4545455), wk =   0.0360631
        k(   52) = (   0.2727273   0.4545455   0.4545455), wk =   0.0180316
        k(   53) = (   0.3636364   0.3636364   0.3636364), wk =   0.0060105
        k(   54) = (   0.3636364   0.3636364   0.4545455), wk =   0.0180316
        k(   55) = (   0.3636364   0.4545455   0.4545455), wk =   0.0180316
        k(   56) = (   0.4545455   0.4545455   0.4545455), wk =   0.0060105

     Dense  grid:    68891 G-vectors     FFT dimensions: (  54,  54,  54)

     Smooth grid:    24303 G-vectors     FFT dimensions: (  36,  36,  36)

     Dynamical RAM for                 wfc:       0.15 MB

     Dynamical RAM for     wfc (w. buffer):      17.48 MB

     Dynamical RAM for           str. fact:       0.35 MB

     Dynamical RAM for           local pot:       0.00 MB

     Dynamical RAM for          nlocal pot:       0.28 MB

     Dynamical RAM for                qrad:       4.97 MB

     Dynamical RAM for          rho,v,vnew:       2.25 MB

     Dynamical RAM for               rhoin:       0.75 MB

     Dynamical RAM for            rho*nmix:       5.61 MB

     Dynamical RAM for           G-vectors:       0.69 MB

     Dynamical RAM for          h,s,v(r/c):       0.07 MB

     Dynamical RAM for          <psi|beta>:       0.01 MB

     Dynamical RAM for                 psi:       0.31 MB

     Dynamical RAM for                hpsi:       0.31 MB

     Dynamical RAM for                spsi:       0.31 MB

     Dynamical RAM for      wfcinit/wfcrot:       0.32 MB

     Dynamical RAM for           addusdens:      32.93 MB

     Dynamical RAM for          addusforce:      32.94 MB

     Dynamical RAM for         addusstress:      35.48 MB

     Estimated static dynamical RAM per process >      28.50 MB

     Estimated max dynamical RAM per process >      69.58 MB

     Estimated total dynamical RAM >     417.49 MB
     Generating pointlists ...
     new r_m :   0.3572 (alat units)  1.8419 (a.u.) for type    1
     new r_m :   0.3572 (alat units)  1.8419 (a.u.) for type    2

     Initial potential from superposition of free atoms

     starting charge      31.9992, renormalised to      32.0000
     Starting wfcs are   20 randomized atomic wfcs
     Checking if some PAW data can be deallocated... 
       PAW data deallocated on    3 nodes for type:  1
       PAW data deallocated on    3 nodes for type:  2

     total cpu time spent up to now is        3.7 secs

     Self-consistent Calculation

     iteration #  1     ecut=   120.00 Ry     beta= 0.70
     Davidson diagonalization with overlap

---- Real-time Memory Report at c_bands before calling an iterative solver
            81 MiB given to the printing process from OS
             0 MiB allocation reported by mallinfo(arena+hblkhd)
         21373 MiB available memory on the node where the printing process lives
------------------
     ethr =  1.00E-02,  avg # of iterations =  3.3

     Threshold (ethr) on eigenvalues was too large:
     Diagonalizing with lowered threshold

     Davidson diagonalization with overlap

---- Real-time Memory Report at c_bands before calling an iterative solver
            99 MiB given to the printing process from OS
             0 MiB allocation reported by mallinfo(arena+hblkhd)
         21275 MiB available memory on the node where the printing process lives
------------------
     ethr =  7.61E-04,  avg # of iterations =  1.5

     negative rho (up, down):  0.000E+00 6.274E-05

     total cpu time spent up to now is       15.2 secs

     total energy              =    -653.75668383 Ry
     estimated scf accuracy    <       0.25165273 Ry

     total magnetization       =     5.45 Bohr mag/cell
     absolute magnetization    =     5.50 Bohr mag/cell

     iteration #  2     ecut=   120.00 Ry     beta= 0.70
     Davidson diagonalization with overlap

---- Real-time Memory Report at c_bands before calling an iterative solver
           101 MiB given to the printing process from OS
             0 MiB allocation reported by mallinfo(arena+hblkhd)
         21293 MiB available memory on the node where the printing process lives
------------------
     ethr =  7.86E-04,  avg # of iterations =  2.1

     negative rho (up, down):  0.000E+00 9.531E-05

     total cpu time spent up to now is       21.6 secs

     total energy              =    -653.78288300 Ry
     estimated scf accuracy    <       0.08209065 Ry

     total magnetization       =     5.00 Bohr mag/cell
     absolute magnetization    =     5.11 Bohr mag/cell

     iteration #  3     ecut=   120.00 Ry     beta= 0.70
     Davidson diagonalization with overlap

---- Real-time Memory Report at c_bands before calling an iterative solver
           101 MiB given to the printing process from OS
             0 MiB allocation reported by mallinfo(arena+hblkhd)
         21303 MiB available memory on the node where the printing process lives
------------------
     ethr =  2.57E-04,  avg # of iterations =  2.7

     negative rho (up, down):  0.000E+00 1.614E-04

     total cpu time spent up to now is       29.4 secs

     total energy              =    -653.81287060 Ry
     estimated scf accuracy    <       0.09229286 Ry

     total magnetization       =     4.39 Bohr mag/cell
     absolute magnetization    =     4.55 Bohr mag/cell

     iteration #  4     ecut=   120.00 Ry     beta= 0.70
     Davidson diagonalization with overlap

---- Real-time Memory Report at c_bands before calling an iterative solver
           101 MiB given to the printing process from OS
             0 MiB allocation reported by mallinfo(arena+hblkhd)
         21298 MiB available memory on the node where the printing process lives
------------------
     ethr =  2.57E-04,  avg # of iterations =  2.1

     negative rho (up, down):  0.000E+00 1.572E-04

     total cpu time spent up to now is       36.1 secs

     total energy              =    -653.82359106 Ry
     estimated scf accuracy    <       0.03309696 Ry

     total magnetization       =     4.10 Bohr mag/cell
     absolute magnetization    =     4.28 Bohr mag/cell

     iteration #  5     ecut=   120.00 Ry     beta= 0.70
     Davidson diagonalization with overlap

---- Real-time Memory Report at c_bands before calling an iterative solver
           101 MiB given to the printing process from OS
             0 MiB allocation reported by mallinfo(arena+hblkhd)
         21306 MiB available memory on the node where the printing process lives
------------------
     ethr =  1.03E-04,  avg # of iterations =  1.2

     negative rho (up, down):  0.000E+00 7.158E-05

     total cpu time spent up to now is       41.8 secs

     total energy              =    -653.82683593 Ry
     estimated scf accuracy    <       0.00843326 Ry

     total magnetization       =     4.10 Bohr mag/cell
     absolute magnetization    =     4.28 Bohr mag/cell

     iteration #  6     ecut=   120.00 Ry     beta= 0.70
     Davidson diagonalization with overlap

---- Real-time Memory Report at c_bands before calling an iterative solver
           101 MiB given to the printing process from OS
             0 MiB allocation reported by mallinfo(arena+hblkhd)
         21310 MiB available memory on the node where the printing process lives
------------------
     ethr =  2.64E-05,  avg # of iterations =  1.7

     negative rho (up, down):  0.000E+00 6.867E-05

     total cpu time spent up to now is       47.6 secs

     total energy              =    -653.82825964 Ry
     estimated scf accuracy    <       0.00033881 Ry

     total magnetization       =     3.95 Bohr mag/cell
     absolute magnetization    =     4.10 Bohr mag/cell

     iteration #  7     ecut=   120.00 Ry     beta= 0.70
     Davidson diagonalization with overlap

---- Real-time Memory Report at c_bands before calling an iterative solver
           101 MiB given to the printing process from OS
             0 MiB allocation reported by mallinfo(arena+hblkhd)
         21695 MiB available memory on the node where the printing process lives
------------------
     ethr =  1.06E-06,  avg # of iterations =  2.3

     negative rho (up, down):  0.000E+00 6.881E-05

     total cpu time spent up to now is       53.5 secs

     total energy              =    -653.82834168 Ry
     estimated scf accuracy    <       0.00000114 Ry

     total magnetization       =     3.95 Bohr mag/cell
     absolute magnetization    =     4.09 Bohr mag/cell

     iteration #  8     ecut=   120.00 Ry     beta= 0.70
     Davidson diagonalization with overlap

---- Real-time Memory Report at c_bands before calling an iterative solver
           102 MiB given to the printing process from OS
             0 MiB allocation reported by mallinfo(arena+hblkhd)
         21941 MiB available memory on the node where the printing process lives
------------------
     ethr =  3.56E-09,  avg # of iterations =  4.5

     negative rho (up, down):  0.000E+00 6.890E-05

     total cpu time spent up to now is       61.7 secs

     total energy              =    -653.82834226 Ry
     estimated scf accuracy    <       0.00000860 Ry

     total magnetization       =     3.96 Bohr mag/cell
     absolute magnetization    =     4.09 Bohr mag/cell

     iteration #  9     ecut=   120.00 Ry     beta= 0.70
     Davidson diagonalization with overlap

---- Real-time Memory Report at c_bands before calling an iterative solver
           102 MiB given to the printing process from OS
             0 MiB allocation reported by mallinfo(arena+hblkhd)
         21439 MiB available memory on the node where the printing process lives
------------------
     ethr =  3.56E-09,  avg # of iterations =  3.7

     negative rho (up, down):  0.000E+00 6.865E-05

     total cpu time spent up to now is       70.1 secs

     total energy              =    -653.82834407 Ry
     estimated scf accuracy    <       0.00000023 Ry

     total magnetization       =     3.96 Bohr mag/cell
     absolute magnetization    =     4.09 Bohr mag/cell

     iteration # 10     ecut=   120.00 Ry     beta= 0.70
     Davidson diagonalization with overlap

---- Real-time Memory Report at c_bands before calling an iterative solver
           102 MiB given to the printing process from OS
             0 MiB allocation reported by mallinfo(arena+hblkhd)
         21221 MiB available memory on the node where the printing process lives
------------------
     ethr =  7.33E-10,  avg # of iterations =  2.4

     negative rho (up, down):  0.000E+00 6.875E-05

     total cpu time spent up to now is       76.5 secs

     total energy              =    -653.82834418 Ry
     estimated scf accuracy    <       0.00000008 Ry

     total magnetization       =     3.95 Bohr mag/cell
     absolute magnetization    =     4.09 Bohr mag/cell

     iteration # 11     ecut=   120.00 Ry     beta= 0.70
     Davidson diagonalization with overlap

---- Real-time Memory Report at c_bands before calling an iterative solver
           102 MiB given to the printing process from OS
             0 MiB allocation reported by mallinfo(arena+hblkhd)
         21265 MiB available memory on the node where the printing process lives
------------------
     ethr =  2.36E-10,  avg # of iterations =  1.8

     negative rho (up, down):  0.000E+00 6.871E-05

     total cpu time spent up to now is       82.1 secs

     total energy              =    -653.82834419 Ry
     estimated scf accuracy    <          2.0E-09 Ry

     total magnetization       =     3.95 Bohr mag/cell
     absolute magnetization    =     4.09 Bohr mag/cell

     iteration # 12     ecut=   120.00 Ry     beta= 0.70
     Davidson diagonalization with overlap

---- Real-time Memory Report at c_bands before calling an iterative solver
           102 MiB given to the printing process from OS
             0 MiB allocation reported by mallinfo(arena+hblkhd)
         21277 MiB available memory on the node where the printing process lives
------------------
     ethr =  6.25E-12,  avg # of iterations =  3.1

     negative rho (up, down):  0.000E+00 6.872E-05

     total cpu time spent up to now is       89.0 secs

     total energy              =    -653.82834419 Ry
     estimated scf accuracy    <          1.6E-09 Ry

     total magnetization       =     3.95 Bohr mag/cell
     absolute magnetization    =     4.09 Bohr mag/cell

     iteration # 13     ecut=   120.00 Ry     beta= 0.70
     Davidson diagonalization with overlap

---- Real-time Memory Report at c_bands before calling an iterative solver
           102 MiB given to the printing process from OS
             0 MiB allocation reported by mallinfo(arena+hblkhd)
         21288 MiB available memory on the node where the printing process lives
------------------
     ethr =  4.95E-12,  avg # of iterations =  2.5

     negative rho (up, down):  0.000E+00 6.871E-05

     total cpu time spent up to now is       95.4 secs

     total energy              =    -653.82834419 Ry
     estimated scf accuracy    <          3.9E-10 Ry

     total magnetization       =     3.95 Bohr mag/cell
     absolute magnetization    =     4.09 Bohr mag/cell

     iteration # 14     ecut=   120.00 Ry     beta= 0.70
     Davidson diagonalization with overlap

---- Real-time Memory Report at c_bands before calling an iterative solver
           102 MiB given to the printing process from OS
             0 MiB allocation reported by mallinfo(arena+hblkhd)
         21297 MiB available memory on the node where the printing process lives
------------------
     ethr =  1.21E-12,  avg # of iterations =  1.7

     negative rho (up, down):  0.000E+00 6.871E-05

     Magnetic moment per site  (integrated on atomic sphere of radius R)
     atom   1 (R=0.357)  charge= 14.2953  magn=  1.9923
     atom   2 (R=0.357)  charge= 14.2953  magn=  1.9923

     total cpu time spent up to now is      100.4 secs

     End of self-consistent calculation

 ------ SPIN UP ------------


          k = 0.0000 0.0000 0.0000 (  2969 PWs)   bands (ev):

   -67.0709 -66.8485 -33.3174 -33.3174 -33.3174 -32.8833 -32.8833 -32.8833
    11.5286  15.2318  15.2318  18.3004  18.3004  18.3004  19.8058  19.8058
    21.2156  21.2156  21.2156  31.3905

     occupation numbers 
     1.0000   1.0000   1.0000   1.0000   1.0000   1.0000   1.0000   1.0000
     1.0000   1.0000   1.0000   1.0000   1.0000   1.0000   1.0000   1.0000
     0.0459   0.0459   0.0459   0.0000

          k = 0.0000 0.0000 0.0909 (  3014 PWs)   bands (ev):

   -67.0657 -66.8523 -33.3168 -33.3082 -33.3082 -32.9005 -32.8915 -32.8915
    11.7169  15.3175  15.3237  18.2975  18.2975  18.3558  19.7089  19.8437
    21.0362  21.0362  21.1527  30.2377

     occupation numbers 
     1.0000   1.0000   1.0000   1.0000   1.0000   1.0000   1.0000   1.0000
     1.0000   1.0000   1.0000   1.0000   1.0000   1.0000   1.0000   1.0000
     0.2255   0.2255   0.0871   0.0000

          k = 0.0000 0.0000 0.1818 (  3030 PWs)   bands (ev):

   -67.0507 -66.8636 -33.3131 -33.2812 -33.2812 -32.9485 -32.9158 -32.9158
    12.2658  15.5683  15.5698  18.2999  18.2999  18.5183  19.4261  19.9529
    20.5805  20.5805  20.9703  27.9654

     occupation numbers 
     1.0000   1.0000   1.0000   1.0000   1.0000   1.0000   1.0000   1.0000
     1.0000   1.0000   1.0000   1.0000   1.0000   1.0000   1.0000   1.0000
     0.9468   0.9468   0.3406   0.0000

          k = 0.0000 0.0000 0.2727 (  3042 PWs)   bands (ev):

   -67.0275 -66.8818 -33.3014 -33.2389 -33.2389 -33.0181 -32.9544 -32.9544
    13.1210  15.8681  15.9732  18.3366  18.3366  18.7770  18.9811  20.0100
    20.0100  20.1283  20.6854  25.5877

     occupation numbers 
     1.0000   1.0000   1.0000   1.0000   1.0000   1.0000   1.0000   1.0000
     1.0000   1.0000   1.0000   1.0000   1.0000   1.0000   1.0000   1.0000
     1.0000   1.0000   0.8576   0.0000

          k = 0.0000 0.0000 0.3636 (  3042 PWs)   bands (ev):

   -66.9987 -66.9062 -33.2760 -33.1852 -33.1852 -33.0966 -33.0047 -33.0047
    14.1695  16.0500  16.5015  18.4129  18.4447  18.4447  19.1140  19.4564
    19.4564  20.3244  20.3976  23.4733

     occupation numbers 
     1.0000   1.0000   1.0000   1.0000   1.0000   1.0000   1.0000   1.0000
     1.0000   1.0000   1.0000   1.0000   1.0000   1.0000   1.0000   1.0000
     1.0000   0.9984   0.9948   0.0000

          k = 0.0000 0.0000 0.4545 (  3038 PWs)   bands (ev):

   -66.9669 -66.9352 -33.2327 -33.1713 -33.1249 -33.1249 -33.0631 -33.0631
    15.1937  15.8760  17.1172  17.7726  18.6575  18.6575  18.9951  18.9951
    19.5047  19.9193  20.8906  21.8643

     occupation numbers 
     1.0000   1.0000   1.0000   1.0000   1.0000   1.0000   1.0000   1.0000
     1.0000   1.0000   1.0000   1.0000   1.0000   1.0000   1.0000   1.0000
     1.0000   1.0000   0.5013   0.0000

          k = 0.0000 0.0909 0.0909 (  3021 PWs)   bands (ev):

   -67.0607 -66.8559 -33.3319 -33.2992 -33.2838 -32.9333 -32.8994 -32.8834
    11.9021  15.3997  15.4163  18.1871  18.2842  18.5180  19.6977  19.8152
    20.7300  20.8586  21.2413  30.2948

     occupation numbers 
     1.0000   1.0000   1.0000   1.0000   1.0000   1.0000   1.0000   1.0000
     1.0000   1.0000   1.0000   1.0000   1.0000   1.0000   1.0000   1.0000
     0.7988   0.5674   0.0344   0.0000

          k = 0.0000 0.0909 0.1818 (  3032 PWs)   bands (ev):

   -67.0462 -66.8666 -33.3410 -33.2732 -33.2458 -32.9925 -32.9226 -32.8942
    12.4405  15.6280  15.6746  18.1037  18.2563  18.7634  19.4874  19.9079
    20.2143  20.4142  21.1746  28.1966

     occupation numbers 
     1.0000   1.0000   1.0000   1.0000   1.0000   1.0000   1.0000   1.0000
     1.0000   1.0000   1.0000   1.0000   1.0000   1.0000   1.0000   1.0000
     0.9998   0.9934   0.0704   0.0000

          k = 0.0000 0.0909 0.2727 (  3030 PWs)   bands (ev):

   -67.0239 -66.8840 -33.3381 -33.2325 -33.1979 -33.0674 -32.9595 -32.9238
    13.2746  15.9300  16.0520  18.0856  18.2244  19.0708  19.1480  19.6386
    19.8804  20.0880  20.9547  25.8023

     occupation numbers 
     1.0000   1.0000   1.0000   1.0000   1.0000   1.0000   1.0000   1.0000
     1.0000   1.0000   1.0000   1.0000   1.0000   1.0000   1.0000   1.0000
     1.0000   1.0000   0.3707   0.0000

          k = 0.0000 0.0909 0.3636 (  3038 PWs)   bands (ev):

   -66.9960 -66.9073 -33.3187 -33.1809 -33.1474 -33.1421 -33.0076 -32.9681
    14.2863  16.1039  16.5419  18.0896  18.1573  18.8723  19.0994  19.4104
    19.4329  20.3650  20.6294  23.6460

     occupation numbers 
     1.0000   1.0000   1.0000   1.0000   1.0000   1.0000   1.0000   1.0000
     1.0000   1.0000   1.0000   1.0000   1.0000   1.0000   1.0000   1.0000
     1.0000   0.9969   0.9132   0.0000

          k = 0.0000 0.0909 0.4545 (  3021 PWs)   bands (ev):

   -66.9655 -66.9351 -33.2797 -33.2211 -33.1229 -33.0821 -33.0635 -33.0225
    15.2619  15.9183  17.1053  17.6694  18.3432  18.6581  18.8909  19.0860
    19.8323  20.2423  20.8968  21.9580

     occupation numbers 
     1.0000   1.0000   1.0000   1.0000   1.0000   1.0000   1.0000   1.0000
     1.0000   1.0000   1.0000   1.0000   1.0000   1.0000   1.0000   1.0000
     1.0000   0.9996   0.4883   0.0000

          k = 0.0000 0.1818 0.1818 (  3035 PWs)   bands (ev):

   -67.0332 -66.8758 -33.3705 -33.2501 -33.1930 -33.0663 -32.9426 -32.8837
    12.9431  15.7870  15.9666  17.8913  18.1718  19.1280  19.5627  19.6306
    19.8487  20.0191  21.3108  28.1708

     occupation numbers 
     1.0000   1.0000   1.0000   1.0000   1.0000   1.0000   1.0000   1.0000
     1.0000   1.0000   1.0000   1.0000   1.0000   1.0000   1.0000   1.0000
     1.0000   1.0000   0.0146   0.0000

          k = 0.0000 0.1818 0.2727 (  3031 PWs)   bands (ev):

   -67.0133 -66.8907 -33.3860 -33.2140 -33.1501 -33.1355 -32.9745 -32.8941
    13.7021  15.9816  16.3779  17.7610  18.1016  19.0386  19.4381  19.5272
    19.6035  19.9826  21.2626  26.2159

     occupation numbers 
     1.0000   1.0000   1.0000   1.0000   1.0000   1.0000   1.0000   1.0000
     1.0000   1.0000   1.0000   1.0000   1.0000   1.0000   1.0000   1.0000
     1.0000   1.0000   0.0268   0.0000

          k = 0.0000 0.1818 0.3636 (  3038 PWs)   bands (ev):

   -66.9886 -66.9108 -33.3820 -33.2328 -33.1684 -33.0760 -33.0164 -32.9227
    14.5778  16.0702  16.8376  17.7420  17.9966  18.5179  19.3140  19.3447
    19.9441  20.2678  21.0581  24.0315

     occupation numbers 
     1.0000   1.0000   1.0000   1.0000   1.0000   1.0000   1.0000   1.0000
     1.0000   1.0000   1.0000   1.0000   1.0000   1.0000   1.0000   1.0000
     1.0000   0.9994   0.1928   0.0000

          k = 0.0000 0.1818 0.4545 (  3030 PWs)   bands (ev):

   -66.9616 -66.9350 -33.3546 -33.3036 -33.1173 -33.0652 -33.0180 -32.9655
    15.3649  15.8843  17.3044  17.7242  17.8565  18.1162  19.2877  19.3020
    20.3586  20.7422  20.9091  22.1866

     occupation numbers 
     1.0000   1.0000   1.0000   1.0000   1.0000   1.0000   1.0000   1.0000
     1.0000   1.0000   1.0000   1.0000   1.0000   1.0000   1.0000   1.0000
     0.9972   0.7807   0.4630   0.0000

          k = 0.0000 0.2727 0.2727 (  3033 PWs)   bands (ev):

   -66.9972 -66.9017 -33.4209 -33.2382 -33.1852 -33.0727 -32.9988 -32.8841
    14.2965  15.9781  16.8705  17.5208  18.1487  18.4586  19.3881  19.6380
    19.9112  19.9964  21.4027  25.8901

     occupation numbers 
     1.0000   1.0000   1.0000   1.0000   1.0000   1.0000   1.0000   1.0000
     1.0000   1.0000   1.0000   1.0000   1.0000   1.0000   1.0000   1.0000
     1.0000   1.0000   0.0039   0.0000

          k = 0.0000 0.2727 0.3636 (  3037 PWs)   bands (ev):

   -66.9774 -66.9168 -33.4348 -33.3193 -33.1491 -33.0308 -33.0139 -32.8939
    14.8871  15.8766  17.4044  17.4147  17.9742  18.3248  19.3654  19.6630
    20.1139  20.4450  21.3607  24.2476

     occupation numbers 
     1.0000   1.0000   1.0000   1.0000   1.0000   1.0000   1.0000   1.0000
     1.0000   1.0000   1.0000   1.0000   1.0000   1.0000   1.0000   1.0000
     1.0000   0.9898   0.0073   0.0000

          k = 0.0000 0.2727 0.4545 (  3043 PWs)   bands (ev):

   -66.9560 -66.9353 -33.4227 -33.3832 -33.1090 -33.0684 -32.9622 -32.9210
    15.3439  15.6642  17.4358  17.6266  17.9101  18.2650  19.5049  19.6488
    20.8445  20.8986  21.1622  22.3928

     occupation numbers 
     1.0000   1.0000   1.0000   1.0000   1.0000   1.0000   1.0000   1.0000
     1.0000   1.0000   1.0000   1.0000   1.0000   1.0000   1.0000   1.0000
     0.5959   0.4846   0.0795   0.0000

          k = 0.0000 0.3636 0.3636 (  3026 PWs)   bands (ev):

   -66.9639 -66.9254 -33.4669 -33.3940 -33.1252 -33.0501 -32.9609 -32.8845
    15.0965  15.6347  17.1956  17.5420  18.1020  19.0643  19.4974  19.8635
    19.9886  20.8841  21.4878  23.6873

     occupation numbers 
     1.0000   1.0000   1.0000   1.0000   1.0000   1.0000   1.0000   1.0000
     1.0000   1.0000   1.0000   1.0000   1.0000   1.0000   1.0000   1.0000
     1.0000   0.5148   0.0010   0.0000

          k = 0.0000 0.3636 0.4545 (  3051 PWs)   bands (ev):

   -66.9498 -66.9366 -33.4719 -33.4470 -33.0992 -33.0735 -32.9200 -32.8938
    15.2459  15.4157  17.1428  17.2589  18.7449  19.2067  19.6926  19.8575
    20.8057  21.2254  21.4364  22.3177

     occupation numbers 
     1.0000   1.0000   1.0000   1.0000   1.0000   1.0000   1.0000   1.0000
     1.0000   1.0000   1.0000   1.0000   1.0000   1.0000   1.0000   1.0000
     0.6717   0.0412   0.0023   0.0000

          k = 0.0000 0.4545 0.4545 (  3056 PWs)   bands (ev):

   -66.9441 -66.9395 -33.4942 -33.4857 -33.0893 -33.0805 -32.8938 -32.8848
    15.1929  15.2465  17.0087  17.0476  19.5672  19.8281  19.8497  20.0443
    20.8556  21.4647  21.5388  21.7231

     occupation numbers 
     1.0000   1.0000   1.0000   1.0000   1.0000   1.0000   1.0000   1.0000
     1.0000   1.0000   1.0000   1.0000   1.0000   1.0000   1.0000   1.0000
     0.5734   0.0014   0.0004   0.0000

          k = 0.0909 0.0909 0.0909 (  3038 PWs)   bands (ev):

   -67.0559 -66.8594 -33.3223 -33.3223 -33.2531 -32.9636 -32.8920 -32.8920
    12.0847  15.4943  15.4943  18.1686  18.1686  18.6837  19.7434  19.7434
    20.3306  21.0629  21.0629  30.6315

     occupation numbers 
     1.0000   1.0000   1.0000   1.0000   1.0000   1.0000   1.0000   1.0000
     1.0000   1.0000   1.0000   1.0000   1.0000   1.0000   1.0000   1.0000
     0.9982   0.1862   0.1862   0.0000

          k = 0.0909 0.0909 0.1818 (  3036 PWs)   bands (ev):

   -67.0419 -66.8696 -33.3420 -33.2944 -33.2091 -33.0249 -32.9170 -32.8955
    12.6140  15.7225  15.7443  18.0439  18.1184  18.9740  19.5400  19.7645
    19.8682  20.6145  21.1067  28.4420

     occupation numbers 
     1.0000   1.0000   1.0000   1.0000   1.0000   1.0000   1.0000   1.0000
     1.0000   1.0000   1.0000   1.0000   1.0000   1.0000   1.0000   1.0000
     1.0000   0.9248   0.1313   0.0000

          k = 0.0909 0.0909 0.2727 (  3034 PWs)   bands (ev):

   -67.0203 -66.8861 -33.3484 -33.2508 -33.1592 -33.1005 -32.9570 -32.9165
    13.4299  16.0420  16.0830  18.0057  18.0375  19.2023  19.2522  19.3239
    20.0546  20.0652  20.9686  26.0322

     occupation numbers 
     1.0000   1.0000   1.0000   1.0000   1.0000   1.0000   1.0000   1.0000
     1.0000   1.0000   1.0000   1.0000   1.0000   1.0000   1.0000   1.0000
     1.0000   1.0000   0.3438   0.0000

          k = 0.0909 0.0909 0.3636 (  3042 PWs)   bands (ev):

   -66.9935 -66.9084 -33.3367 -33.1955 -33.1793 -33.1053 -33.0090 -32.9518
    14.4096  16.1956  16.5440  17.8759  18.0855  18.7594  18.9995  19.5519
    19.7049  20.3489  20.7032  23.8522

     occupation numbers 
     1.0000   1.0000   1.0000   1.0000   1.0000   1.0000   1.0000   1.0000
     1.0000   1.0000   1.0000   1.0000   1.0000   1.0000   1.0000   1.0000
     1.0000   0.9976   0.8358   0.0000

          k = 0.0909 0.0909 0.4545 (  3023 PWs)   bands (ev):

   -66.9642 -66.9350 -33.3039 -33.2499 -33.1331 -33.0693 -33.0502 -32.9977
    15.3445  15.9863  17.0554  17.5373  18.2672  18.4800  18.9563  19.1611
    20.0492  20.3762  20.9594  22.1132

     occupation numbers 
     1.0000   1.0000   1.0000   1.0000   1.0000   1.0000   1.0000   1.0000
     1.0000   1.0000   1.0000   1.0000   1.0000   1.0000   1.0000   1.0000
     1.0000   0.9963   0.3615   0.0000

          k = 0.0909 0.1818 0.1818 (  3044 PWs)   bands (ev):

   -67.0293 -66.8782 -33.3602 -33.2841 -33.1574 -33.0917 -32.9333 -32.8930
    13.1126  15.8946  16.0213  17.8525  18.0045  19.1668  19.3547  19.6089
    19.8200  20.3743  21.1299  28.4945

     occupation numbers 
     1.0000   1.0000   1.0000   1.0000   1.0000   1.0000   1.0000   1.0000
     1.0000   1.0000   1.0000   1.0000   1.0000   1.0000   1.0000   1.0000
     1.0000   0.9964   0.1074   0.0000

          k = 0.0909 0.1818 0.2727 (  3045 PWs)   bands (ev):

   -67.0101 -66.8924 -33.3785 -33.2453 -33.1703 -33.1036 -32.9688 -32.9008
    13.8621  16.1056  16.4020  17.7133  17.9186  18.6305  19.4780  19.7885
    19.9250  19.9694  21.1008  26.4997

     occupation numbers 
     1.0000   1.0000   1.0000   1.0000   1.0000   1.0000   1.0000   1.0000
     1.0000   1.0000   1.0000   1.0000   1.0000   1.0000   1.0000   1.0000
     1.0000   1.0000   0.1380   0.0000

          k = 0.0909 0.1818 0.3636 (  3031 PWs)   bands (ev):

   -66.9863 -66.9116 -33.3799 -33.2477 -33.1930 -33.0506 -33.0169 -32.9230
    14.7193  16.2066  16.7904  17.6282  17.8938  18.2731  19.3307  19.5496
    20.0909  20.4037  20.9231  24.3154

     occupation numbers 
     1.0000   1.0000   1.0000   1.0000   1.0000   1.0000   1.0000   1.0000
     1.0000   1.0000   1.0000   1.0000   1.0000   1.0000   1.0000   1.0000
     1.0000   0.9944   0.4342   0.0000

          k = 0.0909 0.1818 0.4545 (  3032 PWs)   bands (ev):

   -66.9604 -66.9348 -33.3584 -33.3131 -33.1338 -33.0734 -33.0009 -32.9574
    15.4837  16.0035  17.1587  17.4597  17.9722  18.0953  19.2919  19.3519
    20.3310  20.6369  21.2005  22.4900

     occupation numbers 
     1.0000   1.0000   1.0000   1.0000   1.0000   1.0000   1.0000   1.0000
     1.0000   1.0000   1.0000   1.0000   1.0000   1.0000   1.0000   1.0000
     0.9982   0.9069   0.0540   0.0000

          k = 0.0909 0.2727 0.2727 (  3045 PWs)   bands (ev):

   -66.9945 -66.9029 -33.4095 -33.2495 -33.2155 -33.0491 -32.9950 -32.8945
    14.4612  16.1077  16.8851  17.4804  17.9312  18.1384  19.6528  19.6583
    19.9086  20.3014  21.1964  26.2598

     occupation numbers 
     1.0000   1.0000   1.0000   1.0000   1.0000   1.0000   1.0000   1.0000
     1.0000   1.0000   1.0000   1.0000   1.0000   1.0000   1.0000   1.0000
     1.0000   0.9989   0.0564   0.0000

          k = 0.0909 0.2727 0.3636 (  3043 PWs)   bands (ev):

   -66.9754 -66.9173 -33.4247 -33.3236 -33.1729 -33.0317 -32.9995 -32.9025
    15.0463  16.0079  17.3523  17.3574  17.8321  18.1041  19.5228  19.6425
    20.0656  20.8522  21.1259  24.6454

     occupation numbers 
     1.0000   1.0000   1.0000   1.0000   1.0000   1.0000   1.0000   1.0000
     1.0000   1.0000   1.0000   1.0000   1.0000   1.0000   1.0000   1.0000
     1.0000   0.5802   0.1113   0.0000

          k = 0.0909 0.2727 0.4545 (  3043 PWs)   bands (ev):

   -66.9549 -66.9350 -33.4162 -33.3816 -33.1247 -33.0761 -32.9571 -32.9240
    15.4859  15.7952  17.3469  17.4268  17.9683  18.1771  19.5575  19.6286
    20.4246  20.8615  21.6077  22.8894

     occupation numbers 
     1.0000   1.0000   1.0000   1.0000   1.0000   1.0000   1.0000   1.0000
     1.0000   1.0000   1.0000   1.0000   1.0000   1.0000   1.0000   1.0000
     0.9923   0.5613   0.0001   0.0000

          k = 0.0909 0.3636 0.3636 (  3038 PWs)   bands (ev):

   -66.9624 -66.9255 -33.4546 -33.3910 -33.1440 -33.0532 -32.9566 -32.8958
    15.2536  15.7623  17.1657  17.4405  18.0527  18.7175  19.5924  19.8166
    19.9932  21.1627  21.3849  24.2293

     occupation numbers 
     1.0000   1.0000   1.0000   1.0000   1.0000   1.0000   1.0000   1.0000
     1.0000   1.0000   1.0000   1.0000   1.0000   1.0000   1.0000   1.0000
     1.0000   0.0791   0.0051   0.0000

          k = 0.0909 0.3636 0.4545 (  3056 PWs)   bands (ev):

   -66.9488 -66.9362 -33.4606 -33.4388 -33.1118 -33.0805 -32.9240 -32.9034
    15.3889  15.5471  17.1101  17.2052  18.6543  19.0138  19.7315  19.8417
    20.3431  20.9270  22.0395  23.0759

     occupation numbers 
     1.0000   1.0000   1.0000   1.0000   1.0000   1.0000   1.0000   1.0000
     1.0000   1.0000   1.0000   1.0000   1.0000   1.0000   1.0000   1.0000
     0.9978   0.4263   0.0000   0.0000

          k = 0.0909 0.4545 0.4545 (  3056 PWs)   bands (ev):

   -66.9432 -66.9389 -33.4814 -33.4739 -33.0988 -33.0880 -32.9037 -32.8966
    15.3312  15.3803  16.9879  17.0217  19.4313  19.8315  19.8543  20.0369
    20.0482  20.6825  22.4611  22.8785

     occupation numbers 
     1.0000   1.0000   1.0000   1.0000   1.0000   1.0000   1.0000   1.0000
     1.0000   1.0000   1.0000   1.0000   1.0000   1.0000   1.0000   1.0000
     1.0000   0.8609   0.0000   0.0000

          k = 0.1818 0.1818 0.1818 (  3047 PWs)   bands (ev):

   -67.0181 -66.8856 -33.3300 -33.3300 -33.1498 -33.1050 -32.9204 -32.9204
    13.5959  16.1780  16.1780  17.7475  17.7475  18.5481  19.7367  19.7367
    19.8043  20.6941  20.6941  29.3559

     occupation numbers 
     1.0000   1.0000   1.0000   1.0000   1.0000   1.0000   1.0000   1.0000
     1.0000   1.0000   1.0000   1.0000   1.0000   1.0000   1.0000   1.0000
     1.0000   0.8472   0.8472   0.0000

          k = 0.1818 0.1818 0.2727 (  3051 PWs)   bands (ev):

   -67.0009 -66.8977 -33.3649 -33.2829 -33.2194 -33.0549 -32.9639 -32.9166
    14.3086  16.4151  16.4908  17.6003  17.6087  18.0509  19.6137  19.9134
    20.1964  20.3242  20.8101  27.1489

     occupation numbers 
     1.0000   1.0000   1.0000   1.0000   1.0000   1.0000   1.0000   1.0000
     1.0000   1.0000   1.0000   1.0000   1.0000   1.0000   1.0000   1.0000
     0.9998   0.9984   0.6632   0.0000

          k = 0.1818 0.1818 0.3636 (  3041 PWs)   bands (ev):

   -66.9797 -66.9142 -33.3808 -33.2866 -33.2228 -33.0205 -33.0101 -32.9245
    15.0877  16.5315  16.6969  17.4276  17.6705  17.8904  19.4901  19.7784
    20.0991  20.7335  20.9430  24.9562

     occupation numbers 
     1.0000   1.0000   1.0000   1.0000   1.0000   1.0000   1.0000   1.0000
     1.0000   1.0000   1.0000   1.0000   1.0000   1.0000   1.0000   1.0000
     1.0000   0.7938   0.3938   0.0000

          k = 0.1818 0.1818 0.4545 (  3024 PWs)   bands (ev):

   -66.9568 -66.9343 -33.3730 -33.3404 -33.1553 -33.0860 -32.9725 -32.9435
    15.7431  16.2234  16.9790  17.2252  17.8739  17.9594  19.4335  19.5173
    20.2943  20.5268  21.8099  23.1295

     occupation numbers 
     1.0000   1.0000   1.0000   1.0000   1.0000   1.0000   1.0000   1.0000
     1.0000   1.0000   1.0000   1.0000   1.0000   1.0000   1.0000   1.0000
     0.9990   0.9709   0.0000   0.0000

          k = 0.1818 0.2727 0.2727 (  3045 PWs)   bands (ev):

   -66.9869 -66.9065 -33.3764 -33.2796 -33.2711 -33.0111 -32.9853 -32.9248
    14.9231  16.4686  16.9214  17.3755  17.5325  17.5971  19.7379  19.8965
    20.0494  20.7507  20.9247  27.1979

     occupation numbers 
     1.0000   1.0000   1.0000   1.0000   1.0000   1.0000   1.0000   1.0000
     1.0000   1.0000   1.0000   1.0000   1.0000   1.0000   1.0000   1.0000
     1.0000   0.7674   0.4308   0.0000

          k = 0.1818 0.2727 0.3636 (  3041 PWs)   bands (ev):

   -66.9699 -66.9188 -33.3970 -33.3365 -33.2208 -33.0330 -32.9761 -32.9269
    15.4880  16.3638  17.1384  17.2446  17.6167  17.6586  19.7064  19.8107
    20.0368  20.6991  21.6005  25.5477

     occupation numbers 
     1.0000   1.0000   1.0000   1.0000   1.0000   1.0000   1.0000   1.0000
     1.0000   1.0000   1.0000   1.0000   1.0000   1.0000   1.0000   1.0000
     1.0000   0.8410   0.0001   0.0000

          k = 0.1818 0.2727 0.4545 (  3048 PWs)   bands (ev):

   -66.9517 -66.9342 -33.3998 -33.3790 -33.1581 -33.0931 -32.9506 -32.9345
    15.8608  16.1325  17.1294  17.1651  17.9049  17.9077  19.6747  19.6954
    20.2406  20.5009  22.4929  23.8064

     occupation numbers 
     1.0000   1.0000   1.0000   1.0000   1.0000   1.0000   1.0000   1.0000
     1.0000   1.0000   1.0000   1.0000   1.0000   1.0000   1.0000   1.0000
     0.9996   0.9787   0.0000   0.0000

          k = 0.1818 0.3636 0.3636 (  3058 PWs)   bands (ev):

   -66.9581 -66.9258 -33.4189 -33.3834 -33.1889 -33.0591 -32.9521 -32.9288
    15.6984  16.1049  17.0915  17.2269  17.9010  18.0697  19.8000  19.8496
    20.0033  20.6544  22.3084  25.3895

     occupation numbers 
     1.0000   1.0000   1.0000   1.0000   1.0000   1.0000   1.0000   1.0000
     1.0000   1.0000   1.0000   1.0000   1.0000   1.0000   1.0000   1.0000
     1.0000   0.8908   0.0000   0.0000

          k = 0.1818 0.3636 0.4545 (  3060 PWs)   bands (ev):

   -66.9461 -66.9350 -33.4281 -33.4162 -33.1441 -33.0980 -32.9380 -32.9314
    15.7855  15.9035  17.0344  17.0887  18.3654  18.4683  19.8340  19.8625
    20.1453  20.4427  23.1676  24.2957

     occupation numbers 
     1.0000   1.0000   1.0000   1.0000   1.0000   1.0000   1.0000   1.0000
     1.0000   1.0000   1.0000   1.0000   1.0000   1.0000   1.0000   1.0000
     0.9999   0.9901   0.0000   0.0000

          k = 0.1818 0.4545 0.4545 (  3050 PWs)   bands (ev):

   -66.9410 -66.9372 -33.4440 -33.4401 -33.1241 -33.1074 -32.9328 -32.9313
    15.7170  15.7508  16.9397  16.9641  18.9332  19.0357  19.9215  19.9406
    20.0585  20.2400  23.8168  24.3063

     occupation numbers 
     1.0000   1.0000   1.0000   1.0000   1.0000   1.0000   1.0000   1.0000
     1.0000   1.0000   1.0000   1.0000   1.0000   1.0000   1.0000   1.0000
     1.0000   0.9996   0.0000   0.0000

          k = 0.2727 0.2727 0.2727 (  3046 PWs)   bands (ev):

   -66.9754 -66.9128 -33.3246 -33.3246 -33.3188 -32.9803 -32.9729 -32.9729
    15.5577  16.9618  16.9618  17.1012  17.2450  17.2450  19.8693  19.8693
    20.3123  20.3123  21.6404  28.4603

     occupation numbers 
     1.0000   1.0000   1.0000   1.0000   1.0000   1.0000   1.0000   1.0000
     1.0000   1.0000   1.0000   1.0000   1.0000   1.0000   1.0000   1.0000
     0.9987   0.9987   0.0000   0.0000

          k = 0.2727 0.2727 0.3636 (  3052 PWs)   bands (ev):

   -66.9616 -66.9219 -33.3643 -33.3556 -33.2586 -33.0355 -32.9613 -32.9609
    16.0587  16.6751  16.9911  17.1290  17.3092  17.4872  19.8323  20.0040
    20.0124  20.3920  22.4312  26.5495

     occupation numbers 
     1.0000   1.0000   1.0000   1.0000   1.0000   1.0000   1.0000   1.0000
     1.0000   1.0000   1.0000   1.0000   1.0000   1.0000   1.0000   1.0000
     1.0000   0.9953   0.0000   0.0000

          k = 0.2727 0.2727 0.4545 (  3040 PWs)   bands (ev):

   -66.9471 -66.9335 -33.3834 -33.3796 -33.1843 -33.1078 -32.9535 -32.9525
    16.2460  16.4031  17.0133  17.0519  17.6698  17.7790  19.8103  19.8489
    20.1579  20.3096  23.4206  24.7830

     occupation numbers 
     1.0000   1.0000   1.0000   1.0000   1.0000   1.0000   1.0000   1.0000
     1.0000   1.0000   1.0000   1.0000   1.0000   1.0000   1.0000   1.0000
     0.9999   0.9987   0.0000   0.0000

          k = 0.2727 0.3636 0.3636 (  3053 PWs)   bands (ev):

   -66.9520 -66.9268 -33.3746 -33.3628 -33.2423 -33.0600 -32.9813 -32.9574
    16.3445  16.4834  17.0122  17.1194  17.4674  17.6593  19.9314  19.9981
    20.0121  20.2967  23.3163  26.8118

     occupation numbers 
     1.0000   1.0000   1.0000   1.0000   1.0000   1.0000   1.0000   1.0000
     1.0000   1.0000   1.0000   1.0000   1.0000   1.0000   1.0000   1.0000
     1.0000   0.9990   0.0000   0.0000

          k = 0.2727 0.3636 0.4545 (  3050 PWs)   bands (ev):

   -66.9423 -66.9336 -33.3846 -33.3796 -33.1833 -33.1167 -32.9753 -32.9639
    16.3194  16.3391  16.9781  17.0322  17.8811  17.9532  19.9403  19.9540
    20.0983  20.2132  24.3476  25.6229

     occupation numbers 
     1.0000   1.0000   1.0000   1.0000   1.0000   1.0000   1.0000   1.0000
     1.0000   1.0000   1.0000   1.0000   1.0000   1.0000   1.0000   1.0000
     1.0000   0.9998   0.0000   0.0000

          k = 0.2727 0.4545 0.4545 (  3054 PWs)   bands (ev):

   -66.9380 -66.9350 -33.3883 -33.3855 -33.1582 -33.1310 -32.9863 -32.9790
    16.2549  16.2597  16.9008  16.9327  18.2602  18.2768  20.0020  20.0036
    20.0714  20.1250  25.2552  25.8810

     occupation numbers 
     1.0000   1.0000   1.0000   1.0000   1.0000   1.0000   1.0000   1.0000
     1.0000   1.0000   1.0000   1.0000   1.0000   1.0000   1.0000   1.0000
     1.0000   1.0000   0.0000   0.0000

          k = 0.3636 0.3636 0.3636 (  3049 PWs)   bands (ev):

   -66.9450 -66.9290 -33.3655 -33.2915 -33.2915 -33.0494 -33.0494 -32.9743
    16.5632  16.9741  16.9741  17.0627  17.3862  17.3862  20.0157  20.0157
    20.1120  20.1120  24.3666  28.3993

     occupation numbers 
     1.0000   1.0000   1.0000   1.0000   1.0000   1.0000   1.0000   1.0000
     1.0000   1.0000   1.0000   1.0000   1.0000   1.0000   1.0000   1.0000
     1.0000   1.0000   0.0000   0.0000

          k = 0.3636 0.3636 0.4545 (  3049 PWs)   bands (ev):

   -66.9383 -66.9328 -33.3524 -33.3288 -33.2109 -33.1280 -33.0273 -32.9997
    16.5703  16.7023  17.0158  17.1563  17.5363  17.6438  20.0187  20.0387
    20.0824  20.1265  25.5331  26.9141

     occupation numbers 
     1.0000   1.0000   1.0000   1.0000   1.0000   1.0000   1.0000   1.0000
     1.0000   1.0000   1.0000   1.0000   1.0000   1.0000   1.0000   1.0000
     1.0000   1.0000   0.0000   0.0000

          k = 0.3636 0.4545 0.4545 (  3053 PWs)   bands (ev):

   -66.9351 -66.9332 -33.3265 -33.3109 -33.1934 -33.1470 -33.0576 -33.0376
    16.6694  16.7962  16.9185  17.0519  17.6746  17.7099  20.0595  20.0650
    20.0829  20.0986  26.7173  27.5795

     occupation numbers 
     1.0000   1.0000   1.0000   1.0000   1.0000   1.0000   1.0000   1.0000
     1.0000   1.0000   1.0000   1.0000   1.0000   1.0000   1.0000   1.0000
     1.0000   1.0000   0.0000   0.0000

          k = 0.4545 0.4545 0.4545 (  3067 PWs)   bands (ev):

   -66.9331 -66.9324 -33.2681 -33.2267 -33.2267 -33.1399 -33.1399 -33.0983
    16.8731  17.0384  17.0384  17.2957  17.2957  17.3720  20.0902  20.0902
    20.0934  20.0934  28.1549  29.3846

     occupation numbers 
     1.0000   1.0000   1.0000   1.0000   1.0000   1.0000   1.0000   1.0000
     1.0000   1.0000   1.0000   1.0000   1.0000   1.0000   1.0000   1.0000
     1.0000   1.0000   0.0000   0.0000

 ------ SPIN DOWN ----------


          k = 0.0000 0.0000 0.0000 (  2969 PWs)   bands (ev):

   -64.7300 -64.4919 -31.0448 -31.0448 -31.0448 -30.5754 -30.5754 -30.5754
    11.8006  16.8682  16.8682  19.9959  19.9959  19.9959  22.2973  22.2973
    23.1727  23.1727  23.1727  31.7595

     occupation numbers 
     1.0000   1.0000   1.0000   1.0000   1.0000   1.0000   1.0000   1.0000
     1.0000   1.0000   1.0000   1.0000   1.0000   1.0000   0.0000   0.0000
     0.0000   0.0000   0.0000   0.0000

          k = 0.0000 0.0000 0.0909 (  3014 PWs)   bands (ev):

   -64.7244 -64.4959 -31.0445 -31.0348 -31.0348 -30.5943 -30.5843 -30.5843
    11.9904  16.9493  16.9656  19.9872  19.9872  20.0556  22.1770  22.3429
    22.9503  22.9503  23.1035  30.7723

     occupation numbers 
     1.0000   1.0000   1.0000   1.0000   1.0000   1.0000   1.0000   1.0000
     1.0000   1.0000   1.0000   1.0000   1.0000   1.0000   0.0000   0.0000
     0.0000   0.0000   0.0000   0.0000

          k = 0.0000 0.0000 0.1818 (  3030 PWs)   bands (ev):

   -64.7083 -64.5080 -31.0413 -31.0056 -31.0056 -30.6471 -30.6104 -30.6104
    12.5457  17.1493  17.2530  19.9746  19.9746  20.2310  21.8269  22.4043
    22.4043  22.4698  22.9027  28.7498

     occupation numbers 
     1.0000   1.0000   1.0000   1.0000   1.0000   1.0000   1.0000   1.0000
     1.0000   1.0000   1.0000   1.0000   1.0000   0.9997   0.0000   0.0000
     0.0000   0.0000   0.0000   0.0000

          k = 0.0000 0.0000 0.2727 (  3042 PWs)   bands (ev):

   -64.6835 -64.5275 -31.0296 -30.9598 -30.9598 -30.7234 -30.6521 -30.6521
    13.4207  17.3308  17.7150  19.9929  19.9929  20.5107  21.2799  21.7497
    21.7497  22.5899  22.6546  26.6567

     occupation numbers 
     1.0000   1.0000   1.0000   1.0000   1.0000   1.0000   1.0000   1.0000
     1.0000   1.0000   1.0000   1.0000   1.0000   0.9760   0.0217   0.0000
     0.0000   0.0000   0.0000   0.0000

          k = 0.0000 0.0000 0.3636 (  3042 PWs)   bands (ev):

   -64.6525 -64.5535 -31.0030 -30.9017 -30.9017 -30.8092 -30.7064 -30.7064
    14.5281  17.2612  18.3252  20.0862  20.0862  20.5888  20.8757  21.1375
    21.1375  22.1943  22.8830  24.9313

     occupation numbers 
     1.0000   1.0000   1.0000   1.0000   1.0000   1.0000   1.0000   1.0000
     1.0000   1.0000   1.0000   1.0000   1.0000   0.9420   0.5321   0.1003
     0.1003   0.0000   0.0000   0.0000

          k = 0.0000 0.0000 0.4545 (  3038 PWs)   bands (ev):

   -64.6185 -64.5846 -30.9568 -30.8905 -30.8364 -30.8364 -30.7695 -30.7695
    15.7113  16.7132  19.0445  19.8203  20.2943  20.2943  20.6433  20.6433
    21.3001  21.7518  23.2037  23.7996

     occupation numbers 
     1.0000   1.0000   1.0000   1.0000   1.0000   1.0000   1.0000   1.0000
     1.0000   1.0000   1.0000   1.0000   0.9990   0.9990   0.9011   0.9011
     0.0168   0.0000   0.0000   0.0000

          k = 0.0000 0.0909 0.0909 (  3021 PWs)   bands (ev):

   -64.7190 -64.4998 -31.0609 -31.0251 -31.0087 -30.6299 -30.5928 -30.5755
    12.1774  17.0439  17.0464  19.8650  19.9683  20.2286  22.1585  22.3072
    22.5970  22.7316  23.2008  30.8907

     occupation numbers 
     1.0000   1.0000   1.0000   1.0000   1.0000   1.0000   1.0000   1.0000
     1.0000   1.0000   1.0000   1.0000   1.0000   0.9997   0.0000   0.0000
     0.0000   0.0000   0.0000   0.0000

          k = 0.0000 0.0909 0.1818 (  3032 PWs)   bands (ev):

   -64.7035 -64.5112 -31.0713 -30.9969 -30.9677 -30.6947 -30.6177 -30.5872
    12.7235  17.2433  17.3220  19.7635  19.9266  20.4912  21.8867  22.0019
    22.2066  22.4144  23.1243  29.0154

     occupation numbers 
     1.0000   1.0000   1.0000   1.0000   1.0000   1.0000   1.0000   1.0000
     1.0000   1.0000   1.0000   1.0000   1.0000   0.9812   0.0000   0.0000
     0.0000   0.0000   0.0000   0.0000

          k = 0.0000 0.0909 0.2727 (  3030 PWs)   bands (ev):

   -64.6795 -64.5298 -31.0689 -30.9528 -30.9159 -30.7766 -30.6576 -30.6194
    13.5813  17.4182  17.7600  19.7271  19.8892  20.8211  21.3541  21.4301
    21.6143  22.6083  22.8777  26.8850

     occupation numbers 
     1.0000   1.0000   1.0000   1.0000   1.0000   1.0000   1.0000   1.0000
     1.0000   1.0000   1.0000   1.0000   1.0000   0.6423   0.0081   0.0026
     0.0001   0.0000   0.0000   0.0000

          k = 0.0000 0.0909 0.3636 (  3038 PWs)   bands (ev):

   -64.6497 -64.5547 -31.0488 -30.8969 -30.8638 -30.8556 -30.7095 -30.6674
    14.6609  17.3320  18.3262  19.7849  19.8322  20.7634  20.9324  21.1320
    21.2117  22.5175  22.8470  25.0863

     occupation numbers 
     1.0000   1.0000   1.0000   1.0000   1.0000   1.0000   1.0000   1.0000
     1.0000   1.0000   1.0000   1.0000   1.0000   0.7468   0.4152   0.1054
     0.0479   0.0000   0.0000   0.0000

          k = 0.0000 0.0909 0.4545 (  3021 PWs)   bands (ev):

   -64.6170 -64.5844 -31.0072 -30.9439 -30.8342 -30.7907 -30.7700 -30.7262
    15.8070  16.7800  18.9628  19.5448  19.9667  20.2925  20.6911  20.8180
    21.6450  22.0924  23.1922  23.8559

     occupation numbers 
     1.0000   1.0000   1.0000   1.0000   1.0000   1.0000   1.0000   1.0000
     1.0000   1.0000   1.0000   1.0000   1.0000   0.9991   0.8508   0.6483
     0.0000   0.0000   0.0000   0.0000

          k = 0.0000 0.1818 0.1818 (  3035 PWs)   bands (ev):

   -64.6896 -64.5210 -31.1036 -30.9718 -30.9108 -30.7750 -30.6393 -30.5760
    13.2397  17.4284  17.5682  19.5255  19.8201  20.8837  21.3515  21.7643
    21.9396  22.3456  23.2768  29.0588

[...]

          k = 0.0909 0.3636 0.3636 (  3038 PWs)   bands (ev):

   -64.6135 -64.5739 -31.1969 -31.1283 -30.8571 -30.7587 -30.6550 -30.5894
    16.1004  17.0515  18.6951  18.9767  19.5222  19.7633  21.7033  22.0940
    22.5267  23.1652  23.1669  25.4966

     occupation numbers 
     1.0000   1.0000   1.0000   1.0000   1.0000   1.0000   1.0000   1.0000
     1.0000   1.0000   1.0000   1.0000   1.0000   1.0000   0.0000   0.0000
     0.0000   0.0000   0.0000   0.0000

          k = 0.0909 0.3636 0.4545 (  3056 PWs)   bands (ev):

   -64.5989 -64.5854 -31.2037 -31.1803 -30.8221 -30.7882 -30.6199 -30.5976
    16.4442  16.7427  18.6280  18.7248  20.0195  20.1111  21.9326  22.0749
    22.6803  22.9903  23.7196  24.5175

     occupation numbers 
     1.0000   1.0000   1.0000   1.0000   1.0000   1.0000   1.0000   1.0000
     1.0000   1.0000   1.0000   1.0000   1.0000   1.0000   0.0000   0.0000
     0.0000   0.0000   0.0000   0.0000

          k = 0.0909 0.4545 0.4545 (  3056 PWs)   bands (ev):

   -64.5929 -64.5882 -31.2265 -31.2185 -30.8078 -30.7961 -30.5980 -30.5904
    16.4834  16.5749  18.4929  18.5271  20.6802  20.7489  22.1322  22.1924
    22.6028  22.8032  24.0119  24.2978

     occupation numbers 
     1.0000   1.0000   1.0000   1.0000   1.0000   1.0000   1.0000   1.0000
     1.0000   1.0000   1.0000   1.0000   0.8636   0.7701   0.0000   0.0000
     0.0000   0.0000   0.0000   0.0000

          k = 0.1818 0.1818 0.1818 (  3047 PWs)   bands (ev):

   -64.6733 -64.5314 -31.0597 -31.0597 -30.8657 -30.8150 -30.6156 -30.6156
    13.9071  17.7957  17.7957  19.3618  19.3618  20.1005  21.5701  22.1732
    22.1732  22.5840  22.5840  30.3380

     occupation numbers 
     1.0000   1.0000   1.0000   1.0000   1.0000   1.0000   1.0000   1.0000
     1.0000   1.0000   1.0000   1.0000   1.0000   1.0000   0.0002   0.0000
     0.0000   0.0000   0.0000   0.0000

          k = 0.1818 0.1818 0.2727 (  3051 PWs)   bands (ev):

   -64.6548 -64.5443 -31.0982 -31.0085 -30.9415 -30.7608 -30.6627 -30.6117
    14.6637  17.9987  18.0455  19.1754  19.1994  19.5805  21.9746  22.0741
    22.0899  22.4035  22.7469  28.2862

     occupation numbers 
     1.0000   1.0000   1.0000   1.0000   1.0000   1.0000   1.0000   1.0000
     1.0000   1.0000   1.0000   1.0000   1.0000   1.0000   0.0000   0.0000
     0.0000   0.0000   0.0000   0.0000

          k = 0.1818 0.1818 0.3636 (  3041 PWs)   bands (ev):

   -64.6321 -64.5619 -31.1161 -31.0147 -30.9434 -30.7240 -30.7125 -30.6202
    15.5671  17.7892  18.3318  19.0212  19.1614  19.4581  21.6955  21.7468
    22.4723  22.7302  22.8229  26.3155

     occupation numbers 
     1.0000   1.0000   1.0000   1.0000   1.0000   1.0000   1.0000   1.0000
     1.0000   1.0000   1.0000   1.0000   1.0000   1.0000   0.0000   0.0000
     0.0000   0.0000   0.0000   0.0000

          k = 0.1818 0.1818 0.4545 (  3024 PWs)   bands (ev):

   -64.6075 -64.5835 -31.1082 -31.0731 -30.8701 -30.7949 -30.6720 -30.6407
    16.4610  17.2203  18.6029  18.8294  19.3075  19.4555  21.5251  21.5651
    22.5858  22.6500  23.6116  24.7431

     occupation numbers 
     1.0000   1.0000   1.0000   1.0000   1.0000   1.0000   1.0000   1.0000
     1.0000   1.0000   1.0000   1.0000   1.0000   1.0000   0.0005   0.0002
     0.0000   0.0000   0.0000   0.0000

          k = 0.1818 0.2727 0.2727 (  3045 PWs)   bands (ev):

   -64.6398 -64.5537 -31.1110 -31.0070 -30.9959 -30.7135 -30.6859 -30.6206
    15.3438  17.9759  18.4562  18.9259  19.0544  19.0991  21.9962  22.1144
    22.3801  22.6883  22.7244  28.3368

     occupation numbers 
     1.0000   1.0000   1.0000   1.0000   1.0000   1.0000   1.0000   1.0000
     1.0000   1.0000   1.0000   1.0000   1.0000   1.0000   0.0000   0.0000
     0.0000   0.0000   0.0000   0.0000

          k = 0.1818 0.2727 0.3636 (  3041 PWs)   bands (ev):

   -64.6215 -64.5669 -31.1339 -31.0688 -30.9413 -30.7375 -30.6757 -30.6230
    16.0951  17.7059  18.6338  18.7736  19.0421  19.1235  21.8485  22.0293
    22.5288  22.7476  23.3358  26.8316

     occupation numbers 
     1.0000   1.0000   1.0000   1.0000   1.0000   1.0000   1.0000   1.0000
     1.0000   1.0000   1.0000   1.0000   1.0000   1.0000   0.0000   0.0000
     0.0000   0.0000   0.0000   0.0000

          k = 0.1818 0.2727 0.4545 (  3048 PWs)   bands (ev):

   -64.6020 -64.5833 -31.1374 -31.1150 -30.8733 -30.8027 -30.6483 -30.6311
    16.7535  17.2753  18.6411  18.6834  19.1954  19.2858  21.8300  21.9038
    22.6393  22.7006  24.1509  25.2968

     occupation numbers 
     1.0000   1.0000   1.0000   1.0000   1.0000   1.0000   1.0000   1.0000
     1.0000   1.0000   1.0000   1.0000   1.0000   1.0000   0.0000   0.0000
     0.0000   0.0000   0.0000   0.0000

          k = 0.1818 0.3636 0.3636 (  3058 PWs)   bands (ev):

   -64.6089 -64.5742 -31.1580 -31.1199 -30.9067 -30.7657 -30.6500 -30.6252
    16.5559  17.4029  18.5891  18.7254  19.2234  19.2955  21.9629  22.1956
    22.5315  22.7769  23.9609  26.6145

     occupation numbers 
     1.0000   1.0000   1.0000   1.0000   1.0000   1.0000   1.0000   1.0000
     1.0000   1.0000   1.0000   1.0000   1.0000   1.0000   0.0000   0.0000
     0.0000   0.0000   0.0000   0.0000

          k = 0.1818 0.3636 0.4545 (  3060 PWs)   bands (ev):

   -64.5959 -64.5840 -31.1683 -31.1555 -30.8579 -30.8078 -30.6349 -30.6279
    16.8634  17.1167  18.5172  18.5703  19.5529  19.6202  22.0857  22.1733
    22.6223  22.7178  24.6851  25.6359

     occupation numbers 
     1.0000   1.0000   1.0000   1.0000   1.0000   1.0000   1.0000   1.0000
     1.0000   1.0000   1.0000   1.0000   1.0000   1.0000   0.0000   0.0000
     0.0000   0.0000   0.0000   0.0000

          k = 0.1818 0.4545 0.4545 (  3050 PWs)   bands (ev):

   -64.5904 -64.5864 -31.1858 -31.1816 -30.8360 -30.8178 -30.6295 -30.6280
    16.8894  16.9629  18.4086  18.4320  20.0111  20.0412  22.2437  22.2827
    22.6147  22.6658  25.1660  25.5589

     occupation numbers 
     1.0000   1.0000   1.0000   1.0000   1.0000   1.0000   1.0000   1.0000
     1.0000   1.0000   1.0000   1.0000   1.0000   1.0000   0.0000   0.0000
     0.0000   0.0000   0.0000   0.0000

          k = 0.2727 0.2727 0.2727 (  3046 PWs)   bands (ev):

   -64.6274 -64.5604 -31.0547 -31.0547 -31.0495 -30.6801 -30.6728 -30.6728
    16.0109  18.4671  18.4671  18.5080  18.7629  18.7629  22.3159  22.3159
    22.3476  22.3476  23.3682  29.5795

     occupation numbers 
     1.0000   1.0000   1.0000   1.0000   1.0000   1.0000   1.0000   1.0000
     1.0000   1.0000   1.0000   1.0000   1.0000   1.0000   0.0000   0.0000
     0.0000   0.0000   0.0000   0.0000

          k = 0.2727 0.2727 0.3636 (  3052 PWs)   bands (ev):

   -64.6126 -64.5701 -31.0984 -31.0895 -30.9830 -30.7407 -30.6603 -30.6592
    16.7022  17.9964  18.4664  18.6150  18.7069  18.9164  22.1332  22.2246
    22.5100  22.5429  24.0920  27.7758

     occupation numbers 
     1.0000   1.0000   1.0000   1.0000   1.0000   1.0000   1.0000   1.0000
     1.0000   1.0000   1.0000   1.0000   1.0000   1.0000   0.0000   0.0000
     0.0000   0.0000   0.0000   0.0000

          k = 0.2727 0.2727 0.4545 (  3040 PWs)   bands (ev):

   -64.5971 -64.5825 -31.1195 -31.1156 -30.9022 -30.8192 -30.6517 -30.6504
    17.2171  17.5928  18.4723  18.5156  18.9104  19.0800  22.0787  22.1300
    22.6196  22.6232  24.9667  26.1705

     occupation numbers 
     1.0000   1.0000   1.0000   1.0000   1.0000   1.0000   1.0000   1.0000
     1.0000   1.0000   1.0000   1.0000   1.0000   1.0000   0.0000   0.0000
     0.0000   0.0000   0.0000   0.0000

          k = 0.2727 0.3636 0.3636 (  3053 PWs)   bands (ev):

   -64.6022 -64.5752 -31.1101 -31.0970 -30.9654 -30.7673 -30.6822 -30.6557
    17.2170  17.8002  18.4649  18.5459  18.7027  18.9906  22.2442  22.3530
    22.5295  22.5533  24.8751  27.9662

     occupation numbers 
     1.0000   1.0000   1.0000   1.0000   1.0000   1.0000   1.0000   1.0000
     1.0000   1.0000   1.0000   1.0000   1.0000   1.0000   0.0000   0.0000
     0.0000   0.0000   0.0000   0.0000

          k = 0.2727 0.3636 0.4545 (  3050 PWs)   bands (ev):

   -64.5918 -64.5825 -31.1210 -31.1155 -30.9013 -30.8289 -30.6756 -30.6630
    17.4448  17.5883  18.4057  18.4464  18.9986  19.1622  22.2855  22.3324
    22.6106  22.6167  25.7595  26.8737

     occupation numbers 
     1.0000   1.0000   1.0000   1.0000   1.0000   1.0000   1.0000   1.0000
     1.0000   1.0000   1.0000   1.0000   1.0000   1.0000   0.0000   0.0000
     0.0000   0.0000   0.0000   0.0000

          k = 0.2727 0.4545 0.4545 (  3054 PWs)   bands (ev):

   -64.5872 -64.5840 -31.1252 -31.1221 -30.8739 -30.8442 -30.6878 -30.6798
    17.4623  17.4938  18.3177  18.3418  19.3328  19.4026  22.3955  22.4168
    22.6295  22.6350  26.5002  27.0268

     occupation numbers 
     1.0000   1.0000   1.0000   1.0000   1.0000   1.0000   1.0000   1.0000
     1.0000   1.0000   1.0000   1.0000   1.0000   1.0000   0.0000   0.0000
     0.0000   0.0000   0.0000   0.0000

          k = 0.3636 0.3636 0.3636 (  3049 PWs)   bands (ev):

   -64.5947 -64.5775 -31.1002 -31.0194 -31.0194 -30.7561 -30.7561 -30.6742
    17.8685  17.9035  18.3775  18.3775  18.6957  18.6957  22.4692  22.4692
    22.5143  22.5143  25.8121  29.4729

     occupation numbers 
     1.0000   1.0000   1.0000   1.0000   1.0000   1.0000   1.0000   1.0000
     1.0000   1.0000   1.0000   1.0000   1.0000   1.0000   0.0000   0.0000
     0.0000   0.0000   0.0000   0.0000

          k = 0.3636 0.3636 0.4545 (  3049 PWs)   bands (ev):

   -64.5875 -64.5816 -31.0859 -31.0603 -30.9318 -30.8415 -30.7322 -30.7021
    17.8740  17.9344  18.3733  18.4792  18.6450  18.8440  22.4630  22.4876
    22.5999  22.6137  26.8317  28.0685

     occupation numbers 
     1.0000   1.0000   1.0000   1.0000   1.0000   1.0000   1.0000   1.0000
     1.0000   1.0000   1.0000   1.0000   1.0000   1.0000   0.0000   0.0000
     0.0000   0.0000   0.0000   0.0000

          k = 0.3636 0.4545 0.4545 (  3053 PWs)   bands (ev):

   -64.5840 -64.5820 -31.0578 -31.0409 -30.9127 -30.8623 -30.7653 -30.7435
    17.9582  18.0382  18.2756  18.3636  18.8069  18.8874  22.5456  22.5556
    22.6363  22.6415  27.8752  28.6377

     occupation numbers 
     1.0000   1.0000   1.0000   1.0000   1.0000   1.0000   1.0000   1.0000
     1.0000   1.0000   1.0000   1.0000   1.0000   1.0000   0.0000   0.0000
     0.0000   0.0000   0.0000   0.0000

          k = 0.4545 0.4545 0.4545 (  3067 PWs)   bands (ev):

   -64.5818 -64.5812 -30.9943 -30.9493 -30.9493 -30.8548 -30.8548 -30.8095
    18.1730  18.3338  18.3338  18.5309  18.5309  18.5351  22.6437  22.6437
    22.6467  22.6467  29.2109  30.3586

     occupation numbers 
     1.0000   1.0000   1.0000   1.0000   1.0000   1.0000   1.0000   1.0000
     1.0000   1.0000   1.0000   1.0000   1.0000   1.0000   0.0000   0.0000
     0.0000   0.0000   0.0000   0.0000

     the Fermi energy is    20.8912 ev

!    total energy              =    -653.82834419 Ry
     total all-electron energy =     -5086.479763 Ry
     estimated scf accuracy    <          1.1E-11 Ry
     smearing contrib. (-TS)   =      -0.00545887 Ry
     internal energy E=F+TS    =    -653.82288532 Ry

     The total energy is F=E-TS. E is the sum of the following terms:
     one-electron contribution =    -198.10177263 Ry
     hartree contribution      =     122.13048251 Ry
     xc contribution           =     -55.02076620 Ry
     ewald contribution        =    -361.38304322 Ry
     one-center paw contrib.   =    -161.44778578 Ry
      -> PAW hartree energy AE =     183.32422031 Ry
      -> PAW hartree energy PS =    -182.01940280 Ry
      -> PAW xc energy AE      =    -107.77875750 Ry
      -> PAW xc energy PS      =      25.75004708 Ry
      -> total E_H with PAW    =     123.43530002 Ry
      -> total E_XC with PAW   =    -137.04947662 Ry

     total magnetization       =     3.95 Bohr mag/cell
     absolute magnetization    =     4.09 Bohr mag/cell

     convergence has been achieved in  14 iterations

     negative rho (up, down):  0.000E+00 6.871E-05

     Forces acting on atoms (cartesian axes, Ry/au):

     atom    1 type  1   force =     0.00000000    0.00000000    0.00000000
     atom    2 type  2   force =     0.00000000    0.00000000    0.00000000
     The non-local contrib.  to forces
     atom    1 type  1   force =     0.00000000    0.00000000    0.00000000
     atom    2 type  2   force =     0.00000000    0.00000000    0.00000000
     The ionic contribution  to forces
     atom    1 type  1   force =    -0.00000000   -0.00000000   -0.00000000
     atom    2 type  2   force =     0.00000000    0.00000000    0.00000000
     The local contribution  to forces
     atom    1 type  1   force =     0.00000000    0.00000000    0.00000000
     atom    2 type  2   force =     0.00000000    0.00000000    0.00000000
     The core correction contribution to forces
     atom    1 type  1   force =     0.00000000    0.00000000   -0.00000000
     atom    2 type  2   force =    -0.00000000   -0.00000000    0.00000000
     The Hubbard contrib.    to forces
     atom    1 type  1   force =     0.00000000    0.00000000    0.00000000
     atom    2 type  2   force =     0.00000000    0.00000000    0.00000000
     The SCF correction term to forces
     atom    1 type  1   force =    -0.00000000    0.00000000    0.00000000
     atom    2 type  2   force =     0.00000000    0.00000000    0.00000000

     Total force =     0.000000     Total SCF correction =     0.000000


     Computing stress (Cartesian axis) and pressure


     negative rho (up, down):  0.000E+00 6.871E-05
          total   stress  (Ry/bohr**3)                   (kbar)     P=      171.02
   0.00116259   0.00000000   0.00000000          171.02        0.00        0.00
   0.00000000   0.00116259   0.00000000            0.00      171.02        0.00
   0.00000000   0.00000000   0.00116259            0.00        0.00      171.02

     kinetic stress (kbar) 111193.87      0.00      0.00
                                0.00 111193.87      0.00
                                0.00      0.00 111193.87

     local   stress (kbar)  23037.23      0.00     -0.00
                                0.00  23037.23     -0.00
                               -0.00     -0.00  23037.23

     nonloc. stress (kbar) -29730.26      0.00      0.00
                                0.00 -29730.26      0.00
                                0.00      0.00 -29730.26

     hartree stress (kbar)  43691.22     -0.00      0.00
                               -0.00  43691.22      0.00
                                0.00      0.00  43691.22

     exc-cor stress (kbar) -15715.39      0.00      0.00
                                0.00 -15715.39     -0.00
                                0.00     -0.00 -15715.39

     corecor stress (kbar)  -3023.71     -0.00     -0.00
                               -0.00  -3023.71      0.00
                               -0.00      0.00  -3023.71

     ewald   stress (kbar)-129281.94     -0.00     -0.00
                               -0.00-129281.94     -0.00
                               -0.00     -0.00-129281.94

     hubbard stress (kbar)      0.00      0.00      0.00
                                0.00      0.00      0.00
                                0.00      0.00      0.00

     DFT-D   stress (kbar)      0.00      0.00      0.00
                                0.00      0.00      0.00
                                0.00      0.00      0.00

     XDM     stress (kbar)      0.00      0.00      0.00
                                0.00      0.00      0.00
                                0.00      0.00      0.00

     dft-nl  stress (kbar)      0.00      0.00      0.00
                                0.00      0.00      0.00
                                0.00      0.00      0.00

     TS-vdW  stress (kbar)      0.00      0.00      0.00
                                0.00      0.00      0.00
                                0.00      0.00      0.00

     MDB     stress (kbar)      0.00      0.00      0.00
                                0.00      0.00      0.00
                                0.00      0.00      0.00

     3D-RISM stress (kbar)      0.00      0.00      0.00
                                0.00      0.00      0.00
                                0.00      0.00      0.00


     Writing all to output data dir ./temp/fe-afm.save/ :
     XML data file, charge density, pseudopotentials, collected wavefunctions

     init_run     :      3.12s CPU      3.35s WALL (       1 calls)
     electrons    :     88.78s CPU     96.76s WALL (       1 calls)
     forces       :      0.99s CPU      1.05s WALL (       1 calls)
     stress       :      3.25s CPU      3.35s WALL (       1 calls)

     Called by init_run:
     wfcinit      :      1.85s CPU      1.98s WALL (       1 calls)
     wfcinit:atom :      0.02s CPU      0.02s WALL (     112 calls)
     wfcinit:wfcr :      1.74s CPU      1.87s WALL (     112 calls)
     potinit      :      0.42s CPU      0.46s WALL (       1 calls)
     hinit0       :      0.64s CPU      0.66s WALL (       1 calls)

     Called by electrons:
     c_bands      :     71.66s CPU     77.40s WALL (      15 calls)
     sum_band     :     11.99s CPU     13.69s WALL (      15 calls)
     v_of_rho     :      0.64s CPU      0.76s WALL (      15 calls)
     v_h          :      0.02s CPU      0.02s WALL (      15 calls)
     v_xc         :      0.70s CPU      0.82s WALL (      17 calls)
     newd         :      1.76s CPU      1.97s WALL (      15 calls)
     PAW_pot      :      2.88s CPU      3.09s WALL (      15 calls)
     mix_rho      :      0.10s CPU      0.11s WALL (      15 calls)

     Called by c_bands:
     init_us_2    :      0.94s CPU      1.01s WALL (    3696 calls)
     cegterg      :     69.10s CPU     74.69s WALL (    1680 calls)

     Called by sum_band:
     sum_band:wei :      0.02s CPU      0.04s WALL (      15 calls)
     sum_band:loo :      8.82s CPU     10.28s WALL (      15 calls)
     sum_band:buf :      0.09s CPU      0.09s WALL (    1680 calls)
     sum_band:ini :      0.42s CPU      0.46s WALL (    1680 calls)
     sum_band:cal :      2.15s CPU      2.43s WALL (    1680 calls)
     sum_band:bec :      0.05s CPU      0.05s WALL (    1680 calls)
     addusdens    :      2.59s CPU      2.79s WALL (      15 calls)
                                        0.00s GPU  (      15 calls)
     addusd:skk   :      0.00s CPU      0.00s WALL (      30 calls)
                                        0.00s GPU  (      30 calls)

     Called by *egterg:
     cdiaghg      :      3.77s CPU      3.92s WALL (    5649 calls)
     cegterg:over :      7.73s CPU      8.14s WALL (    4081 calls)
     cegterg:upda :      2.87s CPU      2.99s WALL (    4081 calls)
     cegterg:last :      6.78s CPU      7.04s WALL (    3253 calls)
     h_psi        :     39.42s CPU     43.68s WALL (    5873 calls)
     s_psi        :      4.24s CPU      4.48s WALL (    5873 calls)
     g_psi        :      0.19s CPU      0.20s WALL (    4081 calls)

     Called by h_psi:
     h_psi:calbec :      5.79s CPU      6.30s WALL (    5873 calls)
     vloc_psi     :     29.16s CPU     32.72s WALL (    5873 calls)
     add_vuspsi   :      4.31s CPU      4.51s WALL (    5873 calls)

     General routines
     calbec       :      8.92s CPU      9.76s WALL (    8113 calls)
     fft          :      0.53s CPU      0.61s WALL (     415 calls)
     ffts         :      0.16s CPU      0.16s WALL (      60 calls)
     fftw         :     30.14s CPU     34.08s WALL (  201870 calls)
     interpolate  :      0.20s CPU      0.21s WALL (      30 calls)

     Parallel routines

     PAW routines
     PAW_pot      :      2.88s CPU      3.09s WALL (      15 calls)
     PAW_symme    :      0.03s CPU      0.03s WALL (      30 calls)

     PWSCF        :   1m36.64s CPU   1m45.33s WALL


   This run was terminated on:  14:58: 1  11Dec2025            

=------------------------------------------------------------------------------=
   JOB DONE.
=------------------------------------------------------------------------------=
