
     Program PWSCF v.7.3.1 starts on 11Dec2025 at 14:58: 2 

     This program is part of the open-source Quantum ESPRESSO suite
     for quantum simulation of materials; please cite
         "P. Giannozzi et al., J. Phys.:Condens. Matter 21 395502 (2009);
         "P. Giannozzi et al., J. Phys.:Condens. Matter 29 465901 (2017);
         "P. Giannozzi et al., J. Chem. Phys. 152 154105 (2020);
          URL http://www.quantum-espresso.org", 
     in publications or presentations arising from this work. More details at
     http://www.quantum-espresso.org/quote

     Parallel version (MPI), running on     6 processors

     MPI processes distributed on     1 nodes
     21768 MiB available memory on the printing compute node when the environment starts

     Reading input from scf-nm/scf-nm.in

     Current dimensions of program PWSCF are:
     Max number of different atomic species (ntypx) = 10
     Max number of k-points (npk) =  40000
     Max angular momentum in pseudopotentials (lmaxx) =  4
     file Fe.pbesol-spn-kjpaw_psl.1.0.0.UPF: wavefunction(s)  3P 3D renormalized
     file Fe.pbesol-spn-kjpaw_psl.1.0.0.UPF: wavefunction(s)  3P 3D renormalized

     R & G space division:  proc/nbgrp/npool/nimage =       6
     Subspace diagonalization in iterative solution of the eigenvalue problem:
     a serial algorithm will be used


     Parallelization info
     --------------------
     sticks:   dense  smooth     PW     G-vecs:    dense   smooth      PW
     Min         337     167     48                11479     4049     644
     Max         338     168     49                11484     4052     649
     Sum        2025    1005    293                68891    24303    3887

     Using Slab Decomposition



     bravais-lattice index     =            1
     lattice parameter (alat)  =       5.1560  a.u.
     unit-cell volume          =     137.0681 (a.u.)^3
     number of atoms/cell      =            2
     number of atomic types    =            2
     number of electrons       =        32.00
     number of Kohn-Sham states=           20
     kinetic-energy cutoff     =     120.0000  Ry
     charge density cutoff     =     960.0000  Ry
     scf convergence threshold =      1.0E-10
     mixing beta               =       0.7000
     number of iterations used =            8  plain     mixing
     Exchange-correlation= SLA  PW   PSX  PSC
                           (   1   4  10   8   0   0   0)

     celldm(1)=   5.155990  celldm(2)=   0.000000  celldm(3)=   0.000000
     celldm(4)=   0.000000  celldm(5)=   0.000000  celldm(6)=   0.000000

     crystal axes: (cart. coord. in units of alat)
               a(1) = (   1.000000   0.000000   0.000000 )  
               a(2) = (   0.000000   1.000000   0.000000 )  
               a(3) = (   0.000000   0.000000   1.000000 )  

     reciprocal axes: (cart. coord. in units 2 pi/alat)
               b(1) = (  1.000000  0.000000  0.000000 )  
               b(2) = (  0.000000  1.000000  0.000000 )  
               b(3) = (  0.000000  0.000000  1.000000 )  


     PseudoPot. # 1 for Fe read from file:
     ./../../../pseudos/Fe.pbesol-spn-kjpaw_psl.1.0.0.UPF
     MD5 check sum: e30d5f36a6f0cb983ee41abee56170da
     Pseudo is Projector augmented-wave + core cor, Zval = 16.0
     Generated using &quot;atomic&quot; code by A. Dal Corso  v.6.3
     Shape of augmentation charge: PSQ
     Using radial grid of 1191 points,  6 beta functions with: 
                l(1) =   0
                l(2) =   0
                l(3) =   1
                l(4) =   1
                l(5) =   2
                l(6) =   2
     Q(r) pseudized with 0 coefficients 


     PseudoPot. # 2 for Fe read from file:
     ./../../../pseudos/Fe.pbesol-spn-kjpaw_psl.1.0.0.UPF
     MD5 check sum: e30d5f36a6f0cb983ee41abee56170da
     Pseudo is Projector augmented-wave + core cor, Zval = 16.0
     Generated using &quot;atomic&quot; code by A. Dal Corso  v.6.3
     Shape of augmentation charge: PSQ
     Using radial grid of 1191 points,  6 beta functions with: 
                l(1) =   0
                l(2) =   0
                l(3) =   1
                l(4) =   1
                l(5) =   2
                l(6) =   2
     Q(r) pseudized with 0 coefficients 


     atomic species   valence    mass     pseudopotential
     Fe1              16.00    55.84500     Fe( 1.00)
     Fe2              16.00    55.84500     Fe( 1.00)

     48 Sym. Ops., with inversion, found


                                    s                        frac. trans.

      isym =  1     identity                                     

 cryst.   s( 1) = (     1          0          0      )
                  (     0          1          0      )
                  (     0          0          1      )

 cart.    s( 1) = (  1.0000000  0.0000000  0.0000000 )
                  (  0.0000000  1.0000000  0.0000000 )
                  (  0.0000000  0.0000000  1.0000000 )


      isym =  2     180 deg rotation - cart. axis [0,0,1]        

 cryst.   s( 2) = (    -1          0          0      )
                  (     0         -1          0      )
                  (     0          0          1      )

 cart.    s( 2) = ( -1.0000000  0.0000000  0.0000000 )
                  (  0.0000000 -1.0000000  0.0000000 )
                  (  0.0000000  0.0000000  1.0000000 )


      isym =  3     180 deg rotation - cart. axis [0,1,0]        

 cryst.   s( 3) = (    -1          0          0      )
                  (     0          1          0      )
                  (     0          0         -1      )

 cart.    s( 3) = ( -1.0000000  0.0000000  0.0000000 )
                  (  0.0000000  1.0000000  0.0000000 )
                  (  0.0000000  0.0000000 -1.0000000 )


      isym =  4     180 deg rotation - cart. axis [1,0,0]        

 cryst.   s( 4) = (     1          0          0      )
                  (     0         -1          0      )
                  (     0          0         -1      )

 cart.    s( 4) = (  1.0000000  0.0000000  0.0000000 )
                  (  0.0000000 -1.0000000  0.0000000 )
                  (  0.0000000  0.0000000 -1.0000000 )


      isym =  5     180 deg rotation - cart. axis [1,1,0]        

 cryst.   s( 5) = (     0          1          0      )
                  (     1          0          0      )
                  (     0          0         -1      )

 cart.    s( 5) = (  0.0000000  1.0000000  0.0000000 )
                  (  1.0000000  0.0000000  0.0000000 )
                  (  0.0000000  0.0000000 -1.0000000 )


      isym =  6     180 deg rotation - cart. axis [1,-1,0]       

 cryst.   s( 6) = (     0         -1          0      )
                  (    -1          0          0      )
                  (     0          0         -1      )

 cart.    s( 6) = (  0.0000000 -1.0000000  0.0000000 )
                  ( -1.0000000  0.0000000  0.0000000 )
                  (  0.0000000  0.0000000 -1.0000000 )


      isym =  7      90 deg rotation - cart. axis [0,0,-1]       

 cryst.   s( 7) = (     0         -1          0      )
                  (     1          0          0      )
                  (     0          0          1      )

 cart.    s( 7) = (  0.0000000  1.0000000  0.0000000 )
                  ( -1.0000000  0.0000000  0.0000000 )
                  (  0.0000000  0.0000000  1.0000000 )


      isym =  8      90 deg rotation - cart. axis [0,0,1]        

 cryst.   s( 8) = (     0          1          0      )
                  (    -1          0          0      )
                  (     0          0          1      )

 cart.    s( 8) = (  0.0000000 -1.0000000  0.0000000 )
                  (  1.0000000  0.0000000  0.0000000 )
                  (  0.0000000  0.0000000  1.0000000 )


      isym =  9     180 deg rotation - cart. axis [1,0,1]        

 cryst.   s( 9) = (     0          0          1      )
                  (     0         -1          0      )
                  (     1          0          0      )

 cart.    s( 9) = (  0.0000000  0.0000000  1.0000000 )
                  (  0.0000000 -1.0000000  0.0000000 )
                  (  1.0000000  0.0000000  0.0000000 )


      isym = 10     180 deg rotation - cart. axis [-1,0,1]       

 cryst.   s(10) = (     0          0         -1      )
                  (     0         -1          0      )
                  (    -1          0          0      )

 cart.    s(10) = (  0.0000000  0.0000000 -1.0000000 )
                  (  0.0000000 -1.0000000  0.0000000 )
                  ( -1.0000000  0.0000000  0.0000000 )


      isym = 11      90 deg rotation - cart. axis [0,1,0]        

 cryst.   s(11) = (     0          0         -1      )
                  (     0          1          0      )
                  (     1          0          0      )

 cart.    s(11) = (  0.0000000  0.0000000  1.0000000 )
                  (  0.0000000  1.0000000  0.0000000 )
                  ( -1.0000000  0.0000000  0.0000000 )


      isym = 12      90 deg rotation - cart. axis [0,-1,0]       

 cryst.   s(12) = (     0          0          1      )
                  (     0          1          0      )
                  (    -1          0          0      )

 cart.    s(12) = (  0.0000000  0.0000000 -1.0000000 )
                  (  0.0000000  1.0000000  0.0000000 )
                  (  1.0000000  0.0000000  0.0000000 )


      isym = 13     180 deg rotation - cart. axis [0,1,1]        

 cryst.   s(13) = (    -1          0          0      )
                  (     0          0          1      )
                  (     0          1          0      )

 cart.    s(13) = ( -1.0000000  0.0000000  0.0000000 )
                  (  0.0000000  0.0000000  1.0000000 )
                  (  0.0000000  1.0000000  0.0000000 )


      isym = 14     180 deg rotation - cart. axis [0,1,-1]       

 cryst.   s(14) = (    -1          0          0      )
                  (     0          0         -1      )
                  (     0         -1          0      )

 cart.    s(14) = ( -1.0000000  0.0000000  0.0000000 )
                  (  0.0000000  0.0000000 -1.0000000 )
                  (  0.0000000 -1.0000000  0.0000000 )


      isym = 15      90 deg rotation - cart. axis [-1,0,0]       

 cryst.   s(15) = (     1          0          0      )
                  (     0          0         -1      )
                  (     0          1          0      )

 cart.    s(15) = (  1.0000000  0.0000000  0.0000000 )
                  (  0.0000000  0.0000000  1.0000000 )
                  (  0.0000000 -1.0000000  0.0000000 )


      isym = 16      90 deg rotation - cart. axis [1,0,0]        

 cryst.   s(16) = (     1          0          0      )
                  (     0          0          1      )
                  (     0         -1          0      )

 cart.    s(16) = (  1.0000000  0.0000000  0.0000000 )
                  (  0.0000000  0.0000000 -1.0000000 )
                  (  0.0000000  1.0000000  0.0000000 )


      isym = 17     120 deg rotation - cart. axis [-1,-1,-1]     

 cryst.   s(17) = (     0          0          1      )
                  (     1          0          0      )
                  (     0          1          0      )

 cart.    s(17) = (  0.0000000  1.0000000  0.0000000 )
                  (  0.0000000  0.0000000  1.0000000 )
                  (  1.0000000  0.0000000  0.0000000 )


      isym = 18     120 deg rotation - cart. axis [-1,1,1]       

 cryst.   s(18) = (     0          0         -1      )
                  (    -1          0          0      )
                  (     0          1          0      )

 cart.    s(18) = (  0.0000000 -1.0000000  0.0000000 )
                  (  0.0000000  0.0000000  1.0000000 )
                  ( -1.0000000  0.0000000  0.0000000 )


      isym = 19     120 deg rotation - cart. axis [1,1,-1]       

 cryst.   s(19) = (     0          0         -1      )
                  (     1          0          0      )
                  (     0         -1          0      )

 cart.    s(19) = (  0.0000000  1.0000000  0.0000000 )
                  (  0.0000000  0.0000000 -1.0000000 )
                  ( -1.0000000  0.0000000  0.0000000 )


      isym = 20     120 deg rotation - cart. axis [1,-1,1]       

 cryst.   s(20) = (     0          0          1      )
                  (    -1          0          0      )
                  (     0         -1          0      )

 cart.    s(20) = (  0.0000000 -1.0000000  0.0000000 )
                  (  0.0000000  0.0000000 -1.0000000 )
                  (  1.0000000  0.0000000  0.0000000 )


      isym = 21     120 deg rotation - cart. axis [1,1,1]        

 cryst.   s(21) = (     0          1          0      )
                  (     0          0          1      )
                  (     1          0          0      )

 cart.    s(21) = (  0.0000000  0.0000000  1.0000000 )
                  (  1.0000000  0.0000000  0.0000000 )
                  (  0.0000000  1.0000000  0.0000000 )


      isym = 22     120 deg rotation - cart. axis [-1,1,-1]      

 cryst.   s(22) = (     0         -1          0      )
                  (     0          0         -1      )
                  (     1          0          0      )

 cart.    s(22) = (  0.0000000  0.0000000  1.0000000 )
                  ( -1.0000000  0.0000000  0.0000000 )
                  (  0.0000000 -1.0000000  0.0000000 )


      isym = 23     120 deg rotation - cart. axis [1,-1,-1]      

 cryst.   s(23) = (     0         -1          0      )
                  (     0          0          1      )
                  (    -1          0          0      )

 cart.    s(23) = (  0.0000000  0.0000000 -1.0000000 )
                  ( -1.0000000  0.0000000  0.0000000 )
                  (  0.0000000  1.0000000  0.0000000 )


      isym = 24     120 deg rotation - cart. axis [-1,-1,1]      

 cryst.   s(24) = (     0          1          0      )
                  (     0          0         -1      )
                  (    -1          0          0      )

 cart.    s(24) = (  0.0000000  0.0000000 -1.0000000 )
                  (  1.0000000  0.0000000  0.0000000 )
                  (  0.0000000 -1.0000000  0.0000000 )


      isym = 25     inversion                                    

 cryst.   s(25) = (    -1          0          0      )
                  (     0         -1          0      )
                  (     0          0         -1      )

 cart.    s(25) = ( -1.0000000  0.0000000  0.0000000 )
                  (  0.0000000 -1.0000000  0.0000000 )
                  (  0.0000000  0.0000000 -1.0000000 )


      isym = 26     inv. 180 deg rotation - cart. axis [0,0,1]   

 cryst.   s(26) = (     1          0          0      )
                  (     0          1          0      )
                  (     0          0         -1      )

 cart.    s(26) = (  1.0000000  0.0000000  0.0000000 )
                  (  0.0000000  1.0000000  0.0000000 )
                  (  0.0000000  0.0000000 -1.0000000 )


      isym = 27     inv. 180 deg rotation - cart. axis [0,1,0]   

 cryst.   s(27) = (     1          0          0      )
                  (     0         -1          0      )
                  (     0          0          1      )

 cart.    s(27) = (  1.0000000  0.0000000  0.0000000 )
                  (  0.0000000 -1.0000000  0.0000000 )
                  (  0.0000000  0.0000000  1.0000000 )


      isym = 28     inv. 180 deg rotation - cart. axis [1,0,0]   

 cryst.   s(28) = (    -1          0          0      )
                  (     0          1          0      )
                  (     0          0          1      )

 cart.    s(28) = ( -1.0000000  0.0000000  0.0000000 )
                  (  0.0000000  1.0000000  0.0000000 )
                  (  0.0000000  0.0000000  1.0000000 )


      isym = 29     inv. 180 deg rotation - cart. axis [1,1,0]   

 cryst.   s(29) = (     0         -1          0      )
                  (    -1          0          0      )
                  (     0          0          1      )

 cart.    s(29) = (  0.0000000 -1.0000000  0.0000000 )
                  ( -1.0000000  0.0000000  0.0000000 )
                  (  0.0000000  0.0000000  1.0000000 )


      isym = 30     inv. 180 deg rotation - cart. axis [1,-1,0]  

 cryst.   s(30) = (     0          1          0      )
                  (     1          0          0      )
                  (     0          0          1      )

 cart.    s(30) = (  0.0000000  1.0000000  0.0000000 )
                  (  1.0000000  0.0000000  0.0000000 )
                  (  0.0000000  0.0000000  1.0000000 )


      isym = 31     inv.  90 deg rotation - cart. axis [0,0,-1]  

 cryst.   s(31) = (     0          1          0      )
                  (    -1          0          0      )
                  (     0          0         -1      )

 cart.    s(31) = (  0.0000000 -1.0000000  0.0000000 )
                  (  1.0000000  0.0000000  0.0000000 )
                  (  0.0000000  0.0000000 -1.0000000 )


      isym = 32     inv.  90 deg rotation - cart. axis [0,0,1]   

 cryst.   s(32) = (     0         -1          0      )
                  (     1          0          0      )
                  (     0          0         -1      )

 cart.    s(32) = (  0.0000000  1.0000000  0.0000000 )
                  ( -1.0000000  0.0000000  0.0000000 )
                  (  0.0000000  0.0000000 -1.0000000 )


      isym = 33     inv. 180 deg rotation - cart. axis [1,0,1]   

 cryst.   s(33) = (     0          0         -1      )
                  (     0          1          0      )
                  (    -1          0          0      )

 cart.    s(33) = (  0.0000000  0.0000000 -1.0000000 )
                  (  0.0000000  1.0000000  0.0000000 )
                  ( -1.0000000  0.0000000  0.0000000 )


      isym = 34     inv. 180 deg rotation - cart. axis [-1,0,1]  

 cryst.   s(34) = (     0          0          1      )
                  (     0          1          0      )
                  (     1          0          0      )

 cart.    s(34) = (  0.0000000  0.0000000  1.0000000 )
                  (  0.0000000  1.0000000  0.0000000 )
                  (  1.0000000  0.0000000  0.0000000 )


      isym = 35     inv.  90 deg rotation - cart. axis [0,1,0]   

 cryst.   s(35) = (     0          0          1      )
                  (     0         -1          0      )
                  (    -1          0          0      )

 cart.    s(35) = (  0.0000000  0.0000000 -1.0000000 )
                  (  0.0000000 -1.0000000  0.0000000 )
                  (  1.0000000  0.0000000  0.0000000 )


      isym = 36     inv.  90 deg rotation - cart. axis [0,-1,0]  

 cryst.   s(36) = (     0          0         -1      )
                  (     0         -1          0      )
                  (     1          0          0      )

 cart.    s(36) = (  0.0000000  0.0000000  1.0000000 )
                  (  0.0000000 -1.0000000  0.0000000 )
                  ( -1.0000000  0.0000000  0.0000000 )


      isym = 37     inv. 180 deg rotation - cart. axis [0,1,1]   

 cryst.   s(37) = (     1          0          0      )
                  (     0          0         -1      )
                  (     0         -1          0      )

 cart.    s(37) = (  1.0000000  0.0000000  0.0000000 )
                  (  0.0000000  0.0000000 -1.0000000 )
                  (  0.0000000 -1.0000000  0.0000000 )


      isym = 38     inv. 180 deg rotation - cart. axis [0,1,-1]  

 cryst.   s(38) = (     1          0          0      )
                  (     0          0          1      )
                  (     0          1          0      )

 cart.    s(38) = (  1.0000000  0.0000000  0.0000000 )
                  (  0.0000000  0.0000000  1.0000000 )
                  (  0.0000000  1.0000000  0.0000000 )


      isym = 39     inv.  90 deg rotation - cart. axis [-1,0,0]  

 cryst.   s(39) = (    -1          0          0      )
                  (     0          0          1      )
                  (     0         -1          0      )

 cart.    s(39) = ( -1.0000000  0.0000000  0.0000000 )
                  (  0.0000000  0.0000000 -1.0000000 )
                  (  0.0000000  1.0000000  0.0000000 )


      isym = 40     inv.  90 deg rotation - cart. axis [1,0,0]   

 cryst.   s(40) = (    -1          0          0      )
                  (     0          0         -1      )
                  (     0          1          0      )

 cart.    s(40) = ( -1.0000000  0.0000000  0.0000000 )
                  (  0.0000000  0.0000000  1.0000000 )
                  (  0.0000000 -1.0000000  0.0000000 )


      isym = 41     inv. 120 deg rotation - cart. axis [-1,-1,-1]

 cryst.   s(41) = (     0          0         -1      )
                  (    -1          0          0      )
                  (     0         -1          0      )

 cart.    s(41) = (  0.0000000 -1.0000000  0.0000000 )
                  (  0.0000000  0.0000000 -1.0000000 )
                  ( -1.0000000  0.0000000  0.0000000 )


      isym = 42     inv. 120 deg rotation - cart. axis [-1,1,1]  

 cryst.   s(42) = (     0          0          1      )
                  (     1          0          0      )
                  (     0         -1          0      )

 cart.    s(42) = (  0.0000000  1.0000000  0.0000000 )
                  (  0.0000000  0.0000000 -1.0000000 )
                  (  1.0000000  0.0000000  0.0000000 )


      isym = 43     inv. 120 deg rotation - cart. axis [1,1,-1]  

 cryst.   s(43) = (     0          0          1      )
                  (    -1          0          0      )
                  (     0          1          0      )

 cart.    s(43) = (  0.0000000 -1.0000000  0.0000000 )
                  (  0.0000000  0.0000000  1.0000000 )
                  (  1.0000000  0.0000000  0.0000000 )


      isym = 44     inv. 120 deg rotation - cart. axis [1,-1,1]  

 cryst.   s(44) = (     0          0         -1      )
                  (     1          0          0      )
                  (     0          1          0      )

 cart.    s(44) = (  0.0000000  1.0000000  0.0000000 )
                  (  0.0000000  0.0000000  1.0000000 )
                  ( -1.0000000  0.0000000  0.0000000 )


      isym = 45     inv. 120 deg rotation - cart. axis [1,1,1]   

 cryst.   s(45) = (     0         -1          0      )
                  (     0          0         -1      )
                  (    -1          0          0      )

 cart.    s(45) = (  0.0000000  0.0000000 -1.0000000 )
                  ( -1.0000000  0.0000000  0.0000000 )
                  (  0.0000000 -1.0000000  0.0000000 )


      isym = 46     inv. 120 deg rotation - cart. axis [-1,1,-1] 

 cryst.   s(46) = (     0          1          0      )
                  (     0          0          1      )
                  (    -1          0          0      )

 cart.    s(46) = (  0.0000000  0.0000000 -1.0000000 )
                  (  1.0000000  0.0000000  0.0000000 )
                  (  0.0000000  1.0000000  0.0000000 )


      isym = 47     inv. 120 deg rotation - cart. axis [1,-1,-1] 

 cryst.   s(47) = (     0          1          0      )
                  (     0          0         -1      )
                  (     1          0          0      )

 cart.    s(47) = (  0.0000000  0.0000000  1.0000000 )
                  (  1.0000000  0.0000000  0.0000000 )
                  (  0.0000000 -1.0000000  0.0000000 )


      isym = 48     inv. 120 deg rotation - cart. axis [-1,-1,1] 

 cryst.   s(48) = (     0         -1          0      )
                  (     0          0          1      )
                  (     1          0          0      )

 cart.    s(48) = (  0.0000000  0.0000000  1.0000000 )
                  ( -1.0000000  0.0000000  0.0000000 )
                  (  0.0000000  1.0000000  0.0000000 )


     point group O_h (m-3m) 
     there are 10 classes
     the character table:

       E     8C3   3C2   6C4   6C2'  i     8S6   3s_h  6S4   6s_d 
A_1g   1.00  1.00  1.00  1.00  1.00  1.00  1.00  1.00  1.00  1.00
A_2g   1.00  1.00  1.00 -1.00 -1.00  1.00  1.00  1.00 -1.00 -1.00
E_g    2.00 -1.00  2.00  0.00  0.00  2.00 -1.00  2.00  0.00  0.00
T_1g   3.00  0.00 -1.00  1.00 -1.00  3.00  0.00 -1.00  1.00 -1.00
T_2g   3.00  0.00 -1.00 -1.00  1.00  3.00  0.00 -1.00 -1.00  1.00
A_1u   1.00  1.00  1.00  1.00  1.00 -1.00 -1.00 -1.00 -1.00 -1.00
A_2u   1.00  1.00  1.00 -1.00 -1.00 -1.00 -1.00 -1.00  1.00  1.00
E_u    2.00 -1.00  2.00  0.00  0.00 -2.00  1.00 -2.00  0.00  0.00
T_1u   3.00  0.00 -1.00  1.00 -1.00 -3.00  0.00  1.00 -1.00  1.00
T_2u   3.00  0.00 -1.00 -1.00  1.00 -3.00  0.00  1.00  1.00 -1.00

     the symmetry operations in each class and the name of the first element:

     E        1
          identity                                               
     8C3     17   19   20   18   24   21   22   23
          120 deg rotation - cart. axis [-1,-1,-1]               
     3C2      2    4    3
          180 deg rotation - cart. axis [0,0,1]                  
     6C4      7    8   15   16   12   11
           90 deg rotation - cart. axis [0,0,-1]                 
     6C2'     5    6   14   13   10    9
          180 deg rotation - cart. axis [1,1,0]                  
     i       25
          inversion                                              
     8S6     41   43   44   42   48   45   46   47
          inv. 120 deg rotation - cart. axis [-1,-1,-1]          
     3s_h    26   28   27
          inv. 180 deg rotation - cart. axis [0,0,1]             
     6S4     31   32   39   40   36   35
          inv.  90 deg rotation - cart. axis [0,0,-1]            
     6s_d    29   30   38   37   34   33
          inv. 180 deg rotation - cart. axis [1,1,0]             

   Cartesian axes

     site n.     atom                  positions (alat units)
         1        Fe1    tau(   1) = (   0.0000000   0.0000000   0.0000000  )
         2        Fe2    tau(   2) = (   0.5000000   0.5000000   0.5000000  )

   Crystallographic axes

     site n.     atom                  positions (cryst. coord.)
         1        Fe1    tau(   1) = (  0.0000000  0.0000000  0.0000000  )
         2        Fe2    tau(   2) = (  0.5000000  0.5000000  0.5000000  )

     number of k points=    56  Gaussian smearing, width (Ry)=  0.0200
                       cart. coord. in units 2pi/alat
        k(    1) = (   0.0000000   0.0000000   0.0000000), wk =   0.0015026
        k(    2) = (   0.0000000   0.0000000   0.0909091), wk =   0.0090158
        k(    3) = (   0.0000000   0.0000000   0.1818182), wk =   0.0090158
        k(    4) = (   0.0000000   0.0000000   0.2727273), wk =   0.0090158
        k(    5) = (   0.0000000   0.0000000   0.3636364), wk =   0.0090158
        k(    6) = (   0.0000000   0.0000000   0.4545455), wk =   0.0090158
        k(    7) = (   0.0000000   0.0909091   0.0909091), wk =   0.0180316
        k(    8) = (   0.0000000   0.0909091   0.1818182), wk =   0.0360631
        k(    9) = (   0.0000000   0.0909091   0.2727273), wk =   0.0360631
        k(   10) = (   0.0000000   0.0909091   0.3636364), wk =   0.0360631
        k(   11) = (   0.0000000   0.0909091   0.4545455), wk =   0.0360631
        k(   12) = (   0.0000000   0.1818182   0.1818182), wk =   0.0180316
        k(   13) = (   0.0000000   0.1818182   0.2727273), wk =   0.0360631
        k(   14) = (   0.0000000   0.1818182   0.3636364), wk =   0.0360631
        k(   15) = (   0.0000000   0.1818182   0.4545455), wk =   0.0360631
        k(   16) = (   0.0000000   0.2727273   0.2727273), wk =   0.0180316
        k(   17) = (   0.0000000   0.2727273   0.3636364), wk =   0.0360631
        k(   18) = (   0.0000000   0.2727273   0.4545455), wk =   0.0360631
        k(   19) = (   0.0000000   0.3636364   0.3636364), wk =   0.0180316
        k(   20) = (   0.0000000   0.3636364   0.4545455), wk =   0.0360631
        k(   21) = (   0.0000000   0.4545455   0.4545455), wk =   0.0180316
        k(   22) = (   0.0909091   0.0909091   0.0909091), wk =   0.0120210
        k(   23) = (   0.0909091   0.0909091   0.1818182), wk =   0.0360631
        k(   24) = (   0.0909091   0.0909091   0.2727273), wk =   0.0360631
        k(   25) = (   0.0909091   0.0909091   0.3636364), wk =   0.0360631
        k(   26) = (   0.0909091   0.0909091   0.4545455), wk =   0.0360631
        k(   27) = (   0.0909091   0.1818182   0.1818182), wk =   0.0360631
        k(   28) = (   0.0909091   0.1818182   0.2727273), wk =   0.0721262
        k(   29) = (   0.0909091   0.1818182   0.3636364), wk =   0.0721262
        k(   30) = (   0.0909091   0.1818182   0.4545455), wk =   0.0721262
        k(   31) = (   0.0909091   0.2727273   0.2727273), wk =   0.0360631
        k(   32) = (   0.0909091   0.2727273   0.3636364), wk =   0.0721262
        k(   33) = (   0.0909091   0.2727273   0.4545455), wk =   0.0721262
        k(   34) = (   0.0909091   0.3636364   0.3636364), wk =   0.0360631
        k(   35) = (   0.0909091   0.3636364   0.4545455), wk =   0.0721262
        k(   36) = (   0.0909091   0.4545455   0.4545455), wk =   0.0360631
        k(   37) = (   0.1818182   0.1818182   0.1818182), wk =   0.0120210
        k(   38) = (   0.1818182   0.1818182   0.2727273), wk =   0.0360631
        k(   39) = (   0.1818182   0.1818182   0.3636364), wk =   0.0360631
        k(   40) = (   0.1818182   0.1818182   0.4545455), wk =   0.0360631
        k(   41) = (   0.1818182   0.2727273   0.2727273), wk =   0.0360631
        k(   42) = (   0.1818182   0.2727273   0.3636364), wk =   0.0721262
        k(   43) = (   0.1818182   0.2727273   0.4545455), wk =   0.0721262
        k(   44) = (   0.1818182   0.3636364   0.3636364), wk =   0.0360631
        k(   45) = (   0.1818182   0.3636364   0.4545455), wk =   0.0721262
        k(   46) = (   0.1818182   0.4545455   0.4545455), wk =   0.0360631
        k(   47) = (   0.2727273   0.2727273   0.2727273), wk =   0.0120210
        k(   48) = (   0.2727273   0.2727273   0.3636364), wk =   0.0360631
        k(   49) = (   0.2727273   0.2727273   0.4545455), wk =   0.0360631
        k(   50) = (   0.2727273   0.3636364   0.3636364), wk =   0.0360631
        k(   51) = (   0.2727273   0.3636364   0.4545455), wk =   0.0721262
        k(   52) = (   0.2727273   0.4545455   0.4545455), wk =   0.0360631
        k(   53) = (   0.3636364   0.3636364   0.3636364), wk =   0.0120210
        k(   54) = (   0.3636364   0.3636364   0.4545455), wk =   0.0360631
        k(   55) = (   0.3636364   0.4545455   0.4545455), wk =   0.0360631
        k(   56) = (   0.4545455   0.4545455   0.4545455), wk =   0.0120210

                       cryst. coord.
        k(    1) = (   0.0000000   0.0000000   0.0000000), wk =   0.0015026
        k(    2) = (   0.0000000   0.0000000   0.0909091), wk =   0.0090158
        k(    3) = (   0.0000000   0.0000000   0.1818182), wk =   0.0090158
        k(    4) = (   0.0000000   0.0000000   0.2727273), wk =   0.0090158
        k(    5) = (   0.0000000   0.0000000   0.3636364), wk =   0.0090158
        k(    6) = (   0.0000000   0.0000000   0.4545455), wk =   0.0090158
        k(    7) = (   0.0000000   0.0909091   0.0909091), wk =   0.0180316
        k(    8) = (   0.0000000   0.0909091   0.1818182), wk =   0.0360631
        k(    9) = (   0.0000000   0.0909091   0.2727273), wk =   0.0360631
        k(   10) = (   0.0000000   0.0909091   0.3636364), wk =   0.0360631
        k(   11) = (   0.0000000   0.0909091   0.4545455), wk =   0.0360631
        k(   12) = (   0.0000000   0.1818182   0.1818182), wk =   0.0180316
        k(   13) = (   0.0000000   0.1818182   0.2727273), wk =   0.0360631
        k(   14) = (   0.0000000   0.1818182   0.3636364), wk =   0.0360631
        k(   15) = (   0.0000000   0.1818182   0.4545455), wk =   0.0360631
        k(   16) = (   0.0000000   0.2727273   0.2727273), wk =   0.0180316
        k(   17) = (   0.0000000   0.2727273   0.3636364), wk =   0.0360631
        k(   18) = (   0.0000000   0.2727273   0.4545455), wk =   0.0360631
        k(   19) = (   0.0000000   0.3636364   0.3636364), wk =   0.0180316
        k(   20) = (   0.0000000   0.3636364   0.4545455), wk =   0.0360631
        k(   21) = (   0.0000000   0.4545455   0.4545455), wk =   0.0180316
        k(   22) = (   0.0909091   0.0909091   0.0909091), wk =   0.0120210
        k(   23) = (   0.0909091   0.0909091   0.1818182), wk =   0.0360631
        k(   24) = (   0.0909091   0.0909091   0.2727273), wk =   0.0360631
        k(   25) = (   0.0909091   0.0909091   0.3636364), wk =   0.0360631
        k(   26) = (   0.0909091   0.0909091   0.4545455), wk =   0.0360631
        k(   27) = (   0.0909091   0.1818182   0.1818182), wk =   0.0360631
        k(   28) = (   0.0909091   0.1818182   0.2727273), wk =   0.0721262
        k(   29) = (   0.0909091   0.1818182   0.3636364), wk =   0.0721262
        k(   30) = (   0.0909091   0.1818182   0.4545455), wk =   0.0721262
        k(   31) = (   0.0909091   0.2727273   0.2727273), wk =   0.0360631
        k(   32) = (   0.0909091   0.2727273   0.3636364), wk =   0.0721262
        k(   33) = (   0.0909091   0.2727273   0.4545455), wk =   0.0721262
        k(   34) = (   0.0909091   0.3636364   0.3636364), wk =   0.0360631
        k(   35) = (   0.0909091   0.3636364   0.4545455), wk =   0.0721262
        k(   36) = (   0.0909091   0.4545455   0.4545455), wk =   0.0360631
        k(   37) = (   0.1818182   0.1818182   0.1818182), wk =   0.0120210
        k(   38) = (   0.1818182   0.1818182   0.2727273), wk =   0.0360631
        k(   39) = (   0.1818182   0.1818182   0.3636364), wk =   0.0360631
        k(   40) = (   0.1818182   0.1818182   0.4545455), wk =   0.0360631
        k(   41) = (   0.1818182   0.2727273   0.2727273), wk =   0.0360631
        k(   42) = (   0.1818182   0.2727273   0.3636364), wk =   0.0721262
        k(   43) = (   0.1818182   0.2727273   0.4545455), wk =   0.0721262
        k(   44) = (   0.1818182   0.3636364   0.3636364), wk =   0.0360631
        k(   45) = (   0.1818182   0.3636364   0.4545455), wk =   0.0721262
        k(   46) = (   0.1818182   0.4545455   0.4545455), wk =   0.0360631
        k(   47) = (   0.2727273   0.2727273   0.2727273), wk =   0.0120210
        k(   48) = (   0.2727273   0.2727273   0.3636364), wk =   0.0360631
        k(   49) = (   0.2727273   0.2727273   0.4545455), wk =   0.0360631
        k(   50) = (   0.2727273   0.3636364   0.3636364), wk =   0.0360631
        k(   51) = (   0.2727273   0.3636364   0.4545455), wk =   0.0721262
        k(   52) = (   0.2727273   0.4545455   0.4545455), wk =   0.0360631
        k(   53) = (   0.3636364   0.3636364   0.3636364), wk =   0.0120210
        k(   54) = (   0.3636364   0.3636364   0.4545455), wk =   0.0360631
        k(   55) = (   0.3636364   0.4545455   0.4545455), wk =   0.0360631
        k(   56) = (   0.4545455   0.4545455   0.4545455), wk =   0.0120210

     Dense  grid:    68891 G-vectors     FFT dimensions: (  54,  54,  54)

     Smooth grid:    24303 G-vectors     FFT dimensions: (  36,  36,  36)

     Dynamical RAM for                 wfc:       0.15 MB

     Dynamical RAM for     wfc (w. buffer):       8.82 MB

     Dynamical RAM for           str. fact:       0.35 MB

     Dynamical RAM for           local pot:       0.00 MB

     Dynamical RAM for          nlocal pot:       0.28 MB

     Dynamical RAM for                qrad:       4.97 MB

     Dynamical RAM for          rho,v,vnew:       1.13 MB

     Dynamical RAM for               rhoin:       0.38 MB

     Dynamical RAM for            rho*nmix:       2.80 MB

     Dynamical RAM for           G-vectors:       0.69 MB

     Dynamical RAM for          h,s,v(r/c):       0.07 MB

     Dynamical RAM for          <psi|beta>:       0.01 MB

     Dynamical RAM for                 psi:       0.31 MB

     Dynamical RAM for                hpsi:       0.31 MB

     Dynamical RAM for                spsi:       0.31 MB

     Dynamical RAM for      wfcinit/wfcrot:       0.32 MB

     Dynamical RAM for           addusdens:      32.76 MB

     Dynamical RAM for          addusforce:      32.85 MB

     Dynamical RAM for         addusstress:      35.21 MB

     Estimated static dynamical RAM per process >      18.13 MB

     Estimated max dynamical RAM per process >      56.15 MB

     Estimated total dynamical RAM >     336.90 MB

     Initial potential from superposition of free atoms

     starting charge      31.9992, renormalised to      32.0000
     Starting wfcs are   20 randomized atomic wfcs
     Checking if some PAW data can be deallocated... 
       PAW data deallocated on    3 nodes for type:  1
       PAW data deallocated on    3 nodes for type:  2

     total cpu time spent up to now is        2.1 secs

     Self-consistent Calculation

     iteration #  1     ecut=   120.00 Ry     beta= 0.70
     Davidson diagonalization with overlap

---- Real-time Memory Report at c_bands before calling an iterative solver
            79 MiB given to the printing process from OS
             0 MiB allocation reported by mallinfo(arena+hblkhd)
         21394 MiB available memory on the node where the printing process lives
------------------
     ethr =  1.00E-02,  avg # of iterations =  3.1

     Threshold (ethr) on eigenvalues was too large:
     Diagonalizing with lowered threshold

     Davidson diagonalization with overlap

---- Real-time Memory Report at c_bands before calling an iterative solver
            88 MiB given to the printing process from OS
             0 MiB allocation reported by mallinfo(arena+hblkhd)
         21357 MiB available memory on the node where the printing process lives
------------------
     ethr =  2.54E-04,  avg # of iterations =  2.6

     total cpu time spent up to now is        7.5 secs

     total energy              =    -653.72279448 Ry
     estimated scf accuracy    <       0.10798253 Ry

     iteration #  2     ecut=   120.00 Ry     beta= 0.70
     Davidson diagonalization with overlap

---- Real-time Memory Report at c_bands before calling an iterative solver
            88 MiB given to the printing process from OS
             0 MiB allocation reported by mallinfo(arena+hblkhd)
         21356 MiB available memory on the node where the printing process lives
------------------
     ethr =  3.37E-04,  avg # of iterations =  3.6

     total cpu time spent up to now is       11.8 secs

     total energy              =    -653.72494374 Ry
     estimated scf accuracy    <       0.29975944 Ry

     iteration #  3     ecut=   120.00 Ry     beta= 0.70
     Davidson diagonalization with overlap

---- Real-time Memory Report at c_bands before calling an iterative solver
            88 MiB given to the printing process from OS
             0 MiB allocation reported by mallinfo(arena+hblkhd)
         21370 MiB available memory on the node where the printing process lives
------------------
     ethr =  3.37E-04,  avg # of iterations =  3.2

     total cpu time spent up to now is       15.2 secs

     total energy              =    -653.75494189 Ry
     estimated scf accuracy    <       0.66971876 Ry

     iteration #  4     ecut=   120.00 Ry     beta= 0.70
     Davidson diagonalization with overlap

---- Real-time Memory Report at c_bands before calling an iterative solver
            89 MiB given to the printing process from OS
             0 MiB allocation reported by mallinfo(arena+hblkhd)
         21374 MiB available memory on the node where the printing process lives
------------------
     ethr =  3.37E-04,  avg # of iterations =  1.3

     total cpu time spent up to now is       17.8 secs

     total energy              =    -653.78029724 Ry
     estimated scf accuracy    <       0.00036750 Ry

     iteration #  5     ecut=   120.00 Ry     beta= 0.70
     Davidson diagonalization with overlap

---- Real-time Memory Report at c_bands before calling an iterative solver
            89 MiB given to the printing process from OS
             0 MiB allocation reported by mallinfo(arena+hblkhd)
         21379 MiB available memory on the node where the printing process lives
------------------
     ethr =  1.15E-06,  avg # of iterations =  4.5

     total cpu time spent up to now is       21.8 secs

     total energy              =    -653.78076287 Ry
     estimated scf accuracy    <       0.00055152 Ry

     iteration #  6     ecut=   120.00 Ry     beta= 0.70
     Davidson diagonalization with overlap

---- Real-time Memory Report at c_bands before calling an iterative solver
            89 MiB given to the printing process from OS
             0 MiB allocation reported by mallinfo(arena+hblkhd)
         21379 MiB available memory on the node where the printing process lives
------------------
     ethr =  1.15E-06,  avg # of iterations =  1.0

     total cpu time spent up to now is       24.3 secs

     total energy              =    -653.78076445 Ry
     estimated scf accuracy    <       0.00009799 Ry

     iteration #  7     ecut=   120.00 Ry     beta= 0.70
     Davidson diagonalization with overlap

---- Real-time Memory Report at c_bands before calling an iterative solver
            89 MiB given to the printing process from OS
             0 MiB allocation reported by mallinfo(arena+hblkhd)
         22026 MiB available memory on the node where the printing process lives
------------------
     ethr =  3.06E-07,  avg # of iterations =  1.0

     total cpu time spent up to now is       26.9 secs

     total energy              =    -653.78076556 Ry
     estimated scf accuracy    <       0.00001010 Ry

     iteration #  8     ecut=   120.00 Ry     beta= 0.70
     Davidson diagonalization with overlap

---- Real-time Memory Report at c_bands before calling an iterative solver
            89 MiB given to the printing process from OS
             0 MiB allocation reported by mallinfo(arena+hblkhd)
         22023 MiB available memory on the node where the printing process lives
------------------
     ethr =  3.16E-08,  avg # of iterations =  1.1

     total cpu time spent up to now is       29.4 secs

     total energy              =    -653.78076600 Ry
     estimated scf accuracy    <       0.00000002 Ry

     iteration #  9     ecut=   120.00 Ry     beta= 0.70
     Davidson diagonalization with overlap

---- Real-time Memory Report at c_bands before calling an iterative solver
            89 MiB given to the printing process from OS
             0 MiB allocation reported by mallinfo(arena+hblkhd)
         21838 MiB available memory on the node where the printing process lives
------------------
     ethr =  6.42E-11,  avg # of iterations =  4.8

     total cpu time spent up to now is       34.1 secs

     total energy              =    -653.78076603 Ry
     estimated scf accuracy    <          6.7E-09 Ry

     iteration # 10     ecut=   120.00 Ry     beta= 0.70
     Davidson diagonalization with overlap

---- Real-time Memory Report at c_bands before calling an iterative solver
            89 MiB given to the printing process from OS
             0 MiB allocation reported by mallinfo(arena+hblkhd)
         21523 MiB available memory on the node where the printing process lives
------------------
     ethr =  2.08E-11,  avg # of iterations =  1.4

     total cpu time spent up to now is       36.7 secs

     total energy              =    -653.78076603 Ry
     estimated scf accuracy    <       0.00000005 Ry

     iteration # 11     ecut=   120.00 Ry     beta= 0.70
     Davidson diagonalization with overlap

---- Real-time Memory Report at c_bands before calling an iterative solver
            89 MiB given to the printing process from OS
             0 MiB allocation reported by mallinfo(arena+hblkhd)
         21523 MiB available memory on the node where the printing process lives
------------------
     ethr =  2.08E-11,  avg # of iterations =  1.0

     total cpu time spent up to now is       39.4 secs

     total energy              =    -653.78076603 Ry
     estimated scf accuracy    <          9.3E-10 Ry

     iteration # 12     ecut=   120.00 Ry     beta= 0.70
     Davidson diagonalization with overlap

---- Real-time Memory Report at c_bands before calling an iterative solver
            89 MiB given to the printing process from OS
             0 MiB allocation reported by mallinfo(arena+hblkhd)
         21318 MiB available memory on the node where the printing process lives
------------------
     ethr =  2.91E-12,  avg # of iterations =  2.0

     total cpu time spent up to now is       42.0 secs

     End of self-consistent calculation

          k = 0.0000 0.0000 0.0000 (  2969 PWs)   bands (ev):

   -66.1171 -65.8889 -32.3862 -32.3862 -32.3862 -31.9390 -31.9390 -31.9390
    11.6525  15.9392  15.9392  19.0098  19.0098  19.0098  20.8461  20.8461
    22.0225  22.0225  22.0225  31.5569

     occupation numbers 
     1.0000   1.0000   1.0000   1.0000   1.0000   1.0000   1.0000   1.0000
     1.0000   1.0000   1.0000   1.0000   1.0000   1.0000   0.6006   0.6006
     0.0000   0.0000   0.0000   0.0000

          k = 0.0000 0.0000 0.0909 (  3014 PWs)   bands (ev):

   -66.1117 -65.8928 -32.3858 -32.3767 -32.3767 -31.9568 -31.9475 -31.9475
    11.8413  16.0274  16.0297  19.0047  19.0047  19.0668  20.7405  20.8869
    21.8277  21.8277  21.9573  30.4689

     occupation numbers 
     1.0000   1.0000   1.0000   1.0000   1.0000   1.0000   1.0000   1.0000
     1.0000   1.0000   1.0000   1.0000   1.0000   1.0000   0.7893   0.5171
     0.0000   0.0000   0.0000   0.0000

          k = 0.0000 0.0000 0.1818 (  3030 PWs)   bands (ev):

   -66.0963 -65.9043 -32.3822 -32.3488 -32.3488 -32.0067 -31.9724 -31.9724
    12.3927  16.2564  16.2962  19.0013  19.0013  19.2342  20.4325  21.0027
    21.3389  21.3389  21.7681  28.2906

     occupation numbers 
     1.0000   1.0000   1.0000   1.0000   1.0000   1.0000   1.0000   1.0000
     1.0000   1.0000   1.0000   1.0000   1.0000   1.0000   0.9919   0.2882
     0.0105   0.0105   0.0000   0.0000

          k = 0.0000 0.0000 0.2727 (  3042 PWs)   bands (ev):

   -66.0726 -65.9230 -32.3705 -32.3053 -32.3053 -32.0788 -32.0122 -32.0122
    13.2568  16.5135  16.7233  19.0310  19.0310  19.5007  19.9489  20.7368
    20.7368  21.1801  21.4729  26.0187

     occupation numbers 
     1.0000   1.0000   1.0000   1.0000   1.0000   1.0000   1.0000   1.0000
     1.0000   1.0000   1.0000   1.0000   1.0000   1.0000   1.0000   0.7948
     0.7948   0.0694   0.0013   0.0000

          k = 0.0000 0.0000 0.3636 (  3042 PWs)   bands (ev):

   -66.0429 -65.9480 -32.3447 -32.2500 -32.2500 -32.1600 -32.0640 -32.0640
    14.3335  16.5992  17.2844  19.1334  19.1334  19.3338  19.8482  20.1606
    20.1606  21.0991  21.4278  24.0524

     occupation numbers 
     1.0000   1.0000   1.0000   1.0000   1.0000   1.0000   1.0000   1.0000
     1.0000   1.0000   1.0000   1.0000   1.0000   1.0000   1.0000   0.9999
     0.9999   0.1447   0.0028   0.0000

          k = 0.0000 0.0000 0.4545 (  3038 PWs)   bands (ev):

   -66.0103 -65.9778 -32.3003 -32.2371 -32.1878 -32.1878 -32.1241 -32.1241
    15.4354  16.2673  17.9412  18.6439  19.3444  19.3444  19.6866  19.6866
    20.2516  20.6800  21.8380  22.6402

     occupation numbers 
     1.0000   1.0000   1.0000   1.0000   1.0000   1.0000   1.0000   1.0000
     1.0000   1.0000   1.0000   1.0000   1.0000   1.0000   1.0000   1.0000
     0.9996   0.8682   0.0000   0.0000

          k = 0.0000 0.0909 0.0909 (  3021 PWs)   bands (ev):

   -66.1066 -65.8965 -32.4013 -32.3675 -32.3517 -31.9907 -31.9556 -31.9391
    12.0272  16.1117  16.1212  18.8898  18.9895  19.2330  20.7262  20.8558
    21.5043  21.6353  22.0491  30.5484

     occupation numbers 
     1.0000   1.0000   1.0000   1.0000   1.0000   1.0000   1.0000   1.0000
     1.0000   1.0000   1.0000   1.0000   1.0000   1.0000   0.8102   0.5810
     0.0008   0.0001   0.0000   0.0000

          k = 0.0000 0.0909 0.1818 (  3032 PWs)   bands (ev):

   -66.0917 -65.9075 -32.4109 -32.3406 -32.3126 -32.0519 -31.9794 -31.9502
    12.5688  16.3362  16.3810  18.7995  18.9575  19.4849  20.4915  20.9538
    20.9591  21.1612  21.9788  28.5336

     occupation numbers 
     1.0000   1.0000   1.0000   1.0000   1.0000   1.0000   1.0000   1.0000
     1.0000   1.0000   1.0000   1.0000   1.0000   1.0000   0.9821   0.3804
     0.3699   0.0834   0.0000   0.0000

          k = 0.0000 0.0909 0.2727 (  3030 PWs)   bands (ev):

   -66.0688 -65.9253 -32.4082 -32.2987 -32.2632 -32.1295 -32.0174 -31.9808
    13.4137  16.5901  16.7850  18.7744  18.9281  19.8007  20.1025  20.3561
    20.6050  21.1377  21.7490  26.2374

     occupation numbers 
     1.0000   1.0000   1.0000   1.0000   1.0000   1.0000   1.0000   1.0000
     1.0000   1.0000   1.0000   1.0000   1.0000   1.0000   1.0000   0.9975
     0.9342   0.1038   0.0000   0.0000

          k = 0.0000 0.0909 0.3636 (  3038 PWs)   bands (ev):

   -66.0402 -65.9492 -32.3886 -32.2455 -32.2122 -32.2058 -32.0670 -32.0265
    14.4581  16.6612  17.3086  18.8408  18.8428  19.7215  19.7971  20.1308
    20.1735  21.3937  21.4107  24.2169

     occupation numbers 
     1.0000   1.0000   1.0000   1.0000   1.0000   1.0000   1.0000   1.0000
     1.0000   1.0000   1.0000   1.0000   1.0000   1.0000   1.0000   1.0000
     0.9999   0.0048   0.0037   0.0000

          k = 0.0000 0.0909 0.4545 (  3021 PWs)   bands (ev):

   -66.0089 -65.9777 -32.3486 -32.2882 -32.1857 -32.1440 -32.1246 -32.0825
    15.5166  16.3201  17.9032  18.4796  19.0252  19.3444  19.6362  19.8117
    20.5855  21.0095  21.8341  22.7154

     occupation numbers 
     1.0000   1.0000   1.0000   1.0000   1.0000   1.0000   1.0000   1.0000
     1.0000   1.0000   1.0000   1.0000   1.0000   1.0000   1.0000   1.0000
     0.9462   0.2762   0.0000   0.0000

          k = 0.0000 0.1818 0.1818 (  3035 PWs)   bands (ev):

   -66.0784 -65.9168 -32.4415 -32.3168 -32.2583 -32.1282 -32.0000 -31.9395
    13.0775  16.4986  16.6645  18.5773  18.8667  19.8600  20.3501  20.5547
    20.7485  20.8915  22.1210  28.5302

     occupation numbers 
     1.0000   1.0000   1.0000   1.0000   1.0000   1.0000   1.0000   1.0000
     1.0000   1.0000   1.0000   1.0000   1.0000   1.0000   0.9977   0.9616
     0.7770   0.5077   0.0000   0.0000

          k = 0.0000 0.1818 0.2727 (  3031 PWs)   bands (ev):

   -66.0579 -65.9321 -32.4577 -32.2796 -32.2148 -32.1990 -32.0329 -31.9502
    13.8559  16.6649  17.0748  18.4381  18.7853  19.7357  20.2709  20.3353
    20.3924  21.0283  22.0699  26.6501

     occupation numbers 
     1.0000   1.0000   1.0000   1.0000   1.0000   1.0000   1.0000   1.0000
     1.0000   1.0000   1.0000   1.0000   1.0000   1.0000   0.9994   0.9982
     0.9955   0.2444   0.0000   0.0000

          k = 0.0000 0.1818 0.3636 (  3038 PWs)   bands (ev):

   -66.0325 -65.9527 -32.4538 -32.3002 -32.2325 -32.1378 -32.0760 -31.9797
    14.7834  16.6656  17.5455  18.4128  18.6877  19.1988  20.1079  20.1904
    20.7007  21.2932  21.8558  24.5764

     occupation numbers 
     1.0000   1.0000   1.0000   1.0000   1.0000   1.0000   1.0000   1.0000
     1.0000   1.0000   1.0000   1.0000   1.0000   1.0000   1.0000   0.9999
     0.8439   0.0193   0.0000   0.0000

          k = 0.0000 0.1818 0.4545 (  3030 PWs)   bands (ev):

   -66.0049 -65.9775 -32.4258 -32.3733 -32.1799 -32.1263 -32.0780 -32.0238
    15.6757  16.3403  18.0285  18.4443  18.5250  18.7878  20.0822  20.1126
    21.1291  21.5269  21.8132  22.8931

     occupation numbers 
     1.0000   1.0000   1.0000   1.0000   1.0000   1.0000   1.0000   1.0000
     1.0000   1.0000   1.0000   1.0000   1.0000   1.0000   1.0000   1.0000
     0.1121   0.0005   0.0000   0.0000

          k = 0.0000 0.2727 0.2727 (  3033 PWs)   bands (ev):

   -66.0413 -65.9434 -32.4938 -32.3058 -32.2499 -32.1344 -32.0578 -31.9400
    14.4927  16.6330  17.5599  18.1872  18.7724  19.1370  20.1534  20.5882
    20.7553  20.9599  22.2160  26.3207

     occupation numbers 
     1.0000   1.0000   1.0000   1.0000   1.0000   1.0000   1.0000   1.0000
     1.0000   1.0000   1.0000   1.0000   1.0000   1.0000   0.9999   0.9447
     0.7663   0.3683   0.0000   0.0000

          k = 0.0000 0.2727 0.3636 (  3037 PWs)   bands (ev):

   -66.0210 -65.9588 -32.5084 -32.3896 -32.2126 -32.0907 -32.0737 -31.9501
    15.1717  16.4700  18.0632  18.0999  18.6391  18.8941  20.1840  20.5664
    21.1426  21.2193  22.1715  24.7457

     occupation numbers 
     1.0000   1.0000   1.0000   1.0000   1.0000   1.0000   1.0000   1.0000
     1.0000   1.0000   1.0000   1.0000   1.0000   1.0000   0.9999   0.9562
     0.0993   0.0461   0.0000   0.0000

          k = 0.0000 0.2727 0.4545 (  3043 PWs)   bands (ev):

   -65.9991 -65.9778 -32.4962 -32.4555 -32.1713 -32.1295 -32.0205 -31.9781
    15.7461  16.1731  18.0913  18.2840  18.5817  18.8878  20.3654  20.5188
    21.6335  21.7395  21.9640  23.0211

     occupation numbers 
     1.0000   1.0000   1.0000   1.0000   1.0000   1.0000   1.0000   1.0000
     1.0000   1.0000   1.0000   1.0000   1.0000   1.0000   0.9970   0.9748
     0.0001   0.0000   0.0000   0.0000

          k = 0.0000 0.3636 0.3636 (  3026 PWs)   bands (ev):

   -66.0071 -65.9677 -32.5417 -32.4667 -32.1879 -32.1106 -32.0192 -31.9404
    15.4843  16.1995  17.8458  18.1953  18.7899  19.4819  20.3697  20.7588
    21.0461  21.6749  22.3041  24.1553

     occupation numbers 
     1.0000   1.0000   1.0000   1.0000   1.0000   1.0000   1.0000   1.0000
     1.0000   1.0000   1.0000   1.0000   1.0000   1.0000   0.9968   0.7607
     0.2164   0.0000   0.0000   0.0000

          k = 0.0000 0.3636 0.4545 (  3051 PWs)   bands (ev):

   -65.9927 -65.9792 -32.5470 -32.5213 -32.1611 -32.1346 -31.9770 -31.9500
    15.7158  15.9409  17.7889  17.9059  19.4290  19.8043  20.6035  20.7725
    21.5327  22.0299  22.2501  22.8422

     occupation numbers 
     1.0000   1.0000   1.0000   1.0000   1.0000   1.0000   1.0000   1.0000
     1.0000   1.0000   1.0000   1.0000   1.0000   1.0000   0.9352   0.7382
     0.0005   0.0000   0.0000   0.0000

          k = 0.0000 0.4545 0.4545 (  3056 PWs)   bands (ev):

   -65.9868 -65.9821 -32.5700 -32.5613 -32.1509 -32.1419 -31.9500 -31.9408
    15.6983  15.7684  17.6500  17.6892  20.3249  20.7510  20.7693  21.0516
    21.1088  22.1378  22.2795  22.3569

     occupation numbers 
     1.0000   1.0000   1.0000   1.0000   1.0000   1.0000   1.0000   1.0000
     1.0000   1.0000   1.0000   1.0000   0.9985   0.7732   0.7435   0.2082
     0.1334   0.0000   0.0000   0.0000

          k = 0.0909 0.0909 0.0909 (  3038 PWs)   bands (ev):

   -66.1016 -65.9000 -32.3914 -32.3914 -32.3199 -32.0220 -31.9479 -31.9479
    12.2105  16.2032  16.2032  18.8699  18.8699  19.4020  20.7754  20.7754
    21.0769  21.8564  21.8564  30.9012

     occupation numbers 
     1.0000   1.0000   1.0000   1.0000   1.0000   1.0000   1.0000   1.0000
     1.0000   1.0000   1.0000   1.0000   1.0000   1.0000   0.7332   0.7332
     0.1724   0.0000   0.0000   0.0000

          k = 0.0909 0.0909 0.1818 (  3036 PWs)   bands (ev):

   -66.0873 -65.9104 -32.4119 -32.3627 -32.2747 -32.0853 -31.9737 -31.9516
    12.7435  16.4389  16.4433  18.7364  18.8177  19.6983  20.4802  20.5457
    20.9092  21.3791  21.9051  28.7906

     occupation numbers 
     1.0000   1.0000   1.0000   1.0000   1.0000   1.0000   1.0000   1.0000
     1.0000   1.0000   1.0000   1.0000   1.0000   1.0000   0.9845   0.9653
     0.4710   0.0060   0.0000   0.0000

          k = 0.0909 0.0909 0.2727 (  3034 PWs)   bands (ev):

   -66.0651 -65.9274 -32.4188 -32.3177 -32.2233 -32.1635 -32.0148 -31.9732
    13.5717  16.6938  16.8225  18.6864  18.7422  19.8983  20.0554  20.2102
    20.8054  21.1018  21.7631  26.4731

     occupation numbers 
     1.0000   1.0000   1.0000   1.0000   1.0000   1.0000   1.0000   1.0000
     1.0000   1.0000   1.0000   1.0000   1.0000   1.0000   1.0000   0.9998
     0.6796   0.1414   0.0000   0.0000

          k = 0.0909 0.0909 0.3636 (  3042 PWs)   bands (ev):

   -66.0376 -65.9502 -32.4071 -32.2606 -32.2450 -32.1677 -32.0684 -32.0097
    14.5876  16.7497  17.3061  18.6103  18.7535  19.4525  19.8781  20.2818
    20.4526  21.3696  21.4932  24.4181

     occupation numbers 
     1.0000   1.0000   1.0000   1.0000   1.0000   1.0000   1.0000   1.0000
     1.0000   1.0000   1.0000   1.0000   1.0000   1.0000   1.0000   0.9993
     0.9893   0.0068   0.0009   0.0000

          k = 0.0909 0.0909 0.4545 (  3023 PWs)   bands (ev):

   -66.0075 -65.9775 -32.3735 -32.3179 -32.1964 -32.1305 -32.1110 -32.0570
    15.6086  16.3920  17.8360  18.3128  18.9337  19.1654  19.7443  19.9017
    20.8323  21.1684  21.8665  22.8468

     occupation numbers 
     1.0000   1.0000   1.0000   1.0000   1.0000   1.0000   1.0000   1.0000
     1.0000   1.0000   1.0000   1.0000   1.0000   1.0000   1.0000   1.0000
     0.6280   0.0778   0.0000   0.0000

          k = 0.0909 0.1818 0.1818 (  3044 PWs)   bands (ev):

   -66.0744 -65.9193 -32.4308 -32.3521 -32.2213 -32.1544 -31.9905 -31.9491
    13.2479  16.6059  16.7210  18.5371  18.6965  19.8548  20.0865  20.6080
    20.8563  21.1319  21.9293  28.8660

     occupation numbers 
     1.0000   1.0000   1.0000   1.0000   1.0000   1.0000   1.0000   1.0000
     1.0000   1.0000   1.0000   1.0000   1.0000   1.0000   1.0000   0.9322
     0.5801   0.1093   0.0000   0.0000

          k = 0.0909 0.1818 0.2727 (  3045 PWs)   bands (ev):

   -66.0546 -65.9339 -32.4500 -32.3121 -32.2356 -32.1660 -32.0271 -31.9571
    14.0168  16.7920  17.0958  18.3890  18.5990  19.3060  20.4394  20.5340
    20.6771  21.0092  21.9019  26.9423

     occupation numbers 
     1.0000   1.0000   1.0000   1.0000   1.0000   1.0000   1.0000   1.0000
     1.0000   1.0000   1.0000   1.0000   1.0000   1.0000   0.9911   0.9698
     0.8715   0.2768   0.0000   0.0000

          k = 0.0909 0.1818 0.3636 (  3031 PWs)   bands (ev):

   -66.0302 -65.9535 -32.4516 -32.3156 -32.2581 -32.1114 -32.0765 -31.9800
    14.9268  16.7993  17.4931  18.3131  18.5511  18.9525  20.2357  20.3183
    20.9429  21.3239  21.7260  24.8612

     occupation numbers 
     1.0000   1.0000   1.0000   1.0000   1.0000   1.0000   1.0000   1.0000
     1.0000   1.0000   1.0000   1.0000   1.0000   1.0000   0.9997   0.9986
     0.4020   0.0129   0.0000   0.0000

          k = 0.0909 0.1818 0.4545 (  3032 PWs)   bands (ev):

   -66.0036 -65.9773 -32.4297 -32.3831 -32.1971 -32.1348 -32.0603 -32.0154
    15.7964  16.4555  17.8757  18.1695  18.6189  18.7623  20.1294  20.1519
    21.2022  21.4598  22.0098  23.1711

     occupation numbers 
     1.0000   1.0000   1.0000   1.0000   1.0000   1.0000   1.0000   1.0000
     1.0000   1.0000   1.0000   1.0000   1.0000   1.0000   1.0000   0.9999
     0.0553   0.0017   0.0000   0.0000

          k = 0.0909 0.2727 0.2727 (  3045 PWs)   bands (ev):

   -66.0386 -65.9446 -32.4821 -32.3175 -32.2813 -32.1099 -32.0540 -31.9506
    14.6561  16.7647  17.5717  18.1440  18.5641  18.8041  20.4360  20.6168
    20.9541  21.0450  22.0048  26.6992

     occupation numbers 
     1.0000   1.0000   1.0000   1.0000   1.0000   1.0000   1.0000   1.0000
     1.0000   1.0000   1.0000   1.0000   1.0000   1.0000   0.9915   0.9260
     0.3798   0.2181   0.0000   0.0000

          k = 0.0909 0.2727 0.3636 (  3043 PWs)   bands (ev):

   -66.0190 -65.9593 -32.4980 -32.3940 -32.2374 -32.0918 -32.0588 -31.9589
    15.3305  16.6022  18.0139  18.0258  18.4970  18.6750  20.3469  20.5742
    21.0964  21.5993  21.9393  25.1504

     occupation numbers 
     1.0000   1.0000   1.0000   1.0000   1.0000   1.0000   1.0000   1.0000
     1.0000   1.0000   1.0000   1.0000   1.0000   1.0000   0.9978   0.9524
     0.1479   0.0001   0.0000   0.0000

          k = 0.0909 0.2727 0.4545 (  3043 PWs)   bands (ev):

   -65.9979 -65.9775 -32.4894 -32.4539 -32.1876 -32.1375 -32.0151 -31.9811
    15.8898  16.3051  18.0022  18.0855  18.6159  18.7668  20.4229  20.5133
    21.3540  21.6958  22.3282  23.5060

     occupation numbers 
     1.0000   1.0000   1.0000   1.0000   1.0000   1.0000   1.0000   1.0000
     1.0000   1.0000   1.0000   1.0000   1.0000   1.0000   0.9929   0.9764
     0.0085   0.0000   0.0000   0.0000

          k = 0.0909 0.3636 0.3636 (  3038 PWs)   bands (ev):

   -66.0056 -65.9677 -32.5290 -32.4635 -32.2075 -32.1139 -32.0146 -31.9521
    15.6435  16.3284  17.8117  18.0900  18.7246  19.1622  20.4707  20.7585
    21.0499  21.9821  22.1082  24.7104

     occupation numbers 
     1.0000   1.0000   1.0000   1.0000   1.0000   1.0000   1.0000   1.0000
     1.0000   1.0000   1.0000   1.0000   1.0000   1.0000   0.9863   0.7612
     0.2107   0.0000   0.0000   0.0000

          k = 0.0909 0.3636 0.4545 (  3056 PWs)   bands (ev):

   -65.9917 -65.9787 -32.5353 -32.5129 -32.1742 -32.1420 -31.9812 -31.9599
    15.8619  16.0746  17.7518  17.8479  19.3004  19.5379  20.6481  20.7661
    21.2808  21.7564  22.7031  23.6234

     occupation numbers 
     1.0000   1.0000   1.0000   1.0000   1.0000   1.0000   1.0000   1.0000
     1.0000   1.0000   1.0000   1.0000   1.0000   1.0000   0.9005   0.7488
     0.0225   0.0000   0.0000   0.0000

          k = 0.0909 0.4545 0.4545 (  3056 PWs)   bands (ev):

   -65.9859 -65.9815 -32.5568 -32.5492 -32.1607 -32.1496 -31.9602 -31.9530
    15.8393  15.9047  17.6243  17.6583  20.0782  20.3346  20.8015  20.8584
    21.1130  21.4974  23.0544  23.4068

     occupation numbers 
     1.0000   1.0000   1.0000   1.0000   1.0000   1.0000   1.0000   1.0000
     1.0000   1.0000   1.0000   1.0000   1.0000   0.9982   0.6868   0.5758
     0.1288   0.0009   0.0000   0.0000

          k = 0.1818 0.1818 0.1818 (  3047 PWs)   bands (ev):

   -66.0628 -65.9269 -32.3997 -32.3997 -32.2143 -32.1674 -31.9772 -31.9772
    13.7366  16.8825  16.8825  18.4288  18.4288  19.2042  20.5373  20.7537
    20.7537  21.4765  21.4765  29.7487

     occupation numbers 
     1.0000   1.0000   1.0000   1.0000   1.0000   1.0000   1.0000   1.0000
     1.0000   1.0000   1.0000   1.0000   1.0000   1.0000   0.9686   0.7690
     0.7690   0.0013   0.0013   0.0000

          k = 0.1818 0.1818 0.2727 (  3051 PWs)   bands (ev):

   -66.0452 -65.9393 -32.4359 -32.3510 -32.2863 -32.1157 -32.0221 -31.9734
    14.4701  17.1248  17.1557  18.2691  18.2793  18.6982  20.5983  20.9417
    20.9747  21.0644  21.6096  27.5993

     occupation numbers 
     1.0000   1.0000   1.0000   1.0000   1.0000   1.0000   1.0000   1.0000
     1.0000   1.0000   1.0000   1.0000   1.0000   1.0000   0.9386   0.4044
     0.3398   0.1896   0.0001   0.0000

          k = 0.1818 0.1818 0.3636 (  3041 PWs)   bands (ev):

   -66.0234 -65.9562 -32.4526 -32.3557 -32.2891 -32.0804 -32.0697 -31.9816
    15.3098  17.0942  17.4080  18.1096  18.2956  18.5599  20.4296  20.5730
    21.1155  21.5553  21.6864  25.4914

     occupation numbers 
     1.0000   1.0000   1.0000   1.0000   1.0000   1.0000   1.0000   1.0000
     1.0000   1.0000   1.0000   1.0000   1.0000   1.0000   0.9922   0.9530
     0.1261   0.0003   0.0000   0.0000

          k = 0.1818 0.1818 0.4545 (  3024 PWs)   bands (ev):

   -65.9999 -65.9768 -32.4447 -32.4112 -32.2194 -32.1479 -32.0310 -32.0011
    16.0771  16.6773  17.6836  17.9173  18.4774  18.6009  20.3187  20.3496
    21.2523  21.4015  22.5287  23.7675

     occupation numbers 
     1.0000   1.0000   1.0000   1.0000   1.0000   1.0000   1.0000   1.0000
     1.0000   1.0000   1.0000   1.0000   1.0000   1.0000   0.9986   0.9977
     0.0317   0.0043   0.0000   0.0000

          k = 0.1818 0.2727 0.2727 (  3045 PWs)   bands (ev):

   -66.0308 -65.9483 -32.4479 -32.3484 -32.3389 -32.0706 -32.0442 -31.9819
    15.1162  17.1297  17.5993  18.0313  18.1774  18.2340  20.7280  20.8551
    20.9324  21.5637  21.6499  27.6447

     occupation numbers 
     1.0000   1.0000   1.0000   1.0000   1.0000   1.0000   1.0000   1.0000
     1.0000   1.0000   1.0000   1.0000   1.0000   1.0000   0.8076   0.5825
     0.4233   0.0003   0.0000   0.0000

          k = 0.1818 0.2727 0.3636 (  3041 PWs)   bands (ev):

   -66.0133 -65.9609 -32.4693 -32.4072 -32.2870 -32.0933 -32.0346 -31.9841
    15.7719  16.9561  17.7895  17.8939  18.2396  18.2715  20.6549  20.6730
    21.0757  21.5397  22.3064  26.0498

     occupation numbers 
     1.0000   1.0000   1.0000   1.0000   1.0000   1.0000   1.0000   1.0000
     1.0000   1.0000   1.0000   1.0000   1.0000   1.0000   0.8941   0.8759
     0.1740   0.0004   0.0000   0.0000

          k = 0.1818 0.2727 0.4545 (  3048 PWs)   bands (ev):

   -65.9946 -65.9767 -32.4725 -32.4510 -32.2224 -32.1553 -32.0084 -31.9919
    16.2721  16.6443  17.7810  17.8146  18.4564  18.5102  20.5815  20.6001
    21.2345  21.4027  23.1558  24.3925

     occupation numbers 
     1.0000   1.0000   1.0000   1.0000   1.0000   1.0000   1.0000   1.0000
     1.0000   1.0000   1.0000   1.0000   1.0000   1.0000   0.9485   0.9374
     0.0389   0.0042   0.0000   0.0000

          k = 0.1818 0.3636 0.3636 (  3058 PWs)   bands (ev):

   -66.0012 -65.9680 -32.4921 -32.4557 -32.2542 -32.1202 -32.0100 -31.9861
    16.0946  16.6728  17.7258  17.8650  18.5337  18.5549  20.6976  20.8250
    21.0573  21.5212  22.9741  25.8626

     occupation numbers 
     1.0000   1.0000   1.0000   1.0000   1.0000   1.0000   1.0000   1.0000
     1.0000   1.0000   1.0000   1.0000   1.0000   1.0000   0.8478   0.6423
     0.1997   0.0006   0.0000   0.0000

          k = 0.1818 0.3636 0.4545 (  3060 PWs)   bands (ev):

   -65.9888 -65.9774 -32.5017 -32.4895 -32.2078 -32.1603 -31.9955 -31.9887
    16.2682  16.4370  17.6634  17.7187  18.9411  18.9481  20.7697  20.8217
    21.1706  21.3699  23.7676  24.8157

     occupation numbers 
     1.0000   1.0000   1.0000   1.0000   1.0000   1.0000   1.0000   1.0000
     1.0000   1.0000   1.0000   1.0000   1.0000   1.0000   0.7429   0.6487
     0.0761   0.0068   0.0000   0.0000

          k = 0.1818 0.4545 0.4545 (  3050 PWs)   bands (ev):

   -65.9836 -65.9797 -32.5182 -32.5142 -32.1871 -32.1699 -31.9902 -31.9887
    16.2329  16.2814  17.5622  17.5866  19.4501  19.4745  20.8868  20.9138
    21.1238  21.2322  24.3402  24.7864

     occupation numbers 
     1.0000   1.0000   1.0000   1.0000   1.0000   1.0000   1.0000   1.0000
     1.0000   1.0000   1.0000   1.0000   1.0000   1.0000   0.5174   0.4615
     0.1174   0.0399   0.0000   0.0000

          k = 0.2727 0.2727 0.2727 (  3046 PWs)   bands (ev):

   -66.0190 -65.9548 -32.3944 -32.3944 -32.3889 -32.0389 -32.0315 -32.0315
    15.7638  17.6251  17.6251  17.7006  17.8903  17.8903  20.8889  20.8889
    21.1512  21.1512  22.3459  28.9000

     occupation numbers 
     1.0000   1.0000   1.0000   1.0000   1.0000   1.0000   1.0000   1.0000
     1.0000   1.0000   1.0000   1.0000   1.0000   1.0000   0.5129   0.5129
     0.0917   0.0917   0.0000   0.0000

          k = 0.2727 0.2727 0.3636 (  3052 PWs)   bands (ev):

   -66.0048 -65.9640 -32.4356 -32.4269 -32.3263 -32.0961 -32.0195 -32.0189
    16.3589  17.2471  17.6377  17.7647  17.8932  18.1159  20.8283  20.8839
    21.0529  21.2762  23.1026  27.0300

     occupation numbers 
     1.0000   1.0000   1.0000   1.0000   1.0000   1.0000   1.0000   1.0000
     1.0000   1.0000   1.0000   1.0000   1.0000   1.0000   0.6359   0.5235
     0.2063   0.0238   0.0000   0.0000

          k = 0.2727 0.2727 0.4545 (  3040 PWs)   bands (ev):

   -65.9899 -65.9760 -32.4555 -32.4517 -32.2496 -32.1707 -32.0115 -32.0103
    16.6906  16.9280  17.6476  17.6829  18.1897  18.3459  20.7734  20.7746
    21.1799  21.2629  24.0368  25.3289

     occupation numbers 
     1.0000   1.0000   1.0000   1.0000   1.0000   1.0000   1.0000   1.0000
     1.0000   1.0000   1.0000   1.0000   1.0000   1.0000   0.7366   0.7346
     0.0695   0.0280   0.0000   0.0000

          k = 0.2727 0.3636 0.3636 (  3053 PWs)   bands (ev):

   -65.9949 -65.9690 -32.4464 -32.4342 -32.3095 -32.1213 -32.0403 -32.0154
    16.7520  17.0523  17.6300  17.7367  17.9801  18.2538  20.9282  20.9392
    21.0611  21.2249  23.9404  27.2617

     occupation numbers 
     1.0000   1.0000   1.0000   1.0000   1.0000   1.0000   1.0000   1.0000
     1.0000   1.0000   1.0000   1.0000   1.0000   1.0000   0.4318   0.4095
     0.1943   0.0433   0.0000   0.0000

          k = 0.2727 0.3636 0.4545 (  3050 PWs)   bands (ev):

   -65.9849 -65.9760 -32.4568 -32.4516 -32.2486 -32.1799 -32.0341 -32.0222
    16.8219  16.8836  17.5875  17.6397  18.3612  18.4899  20.9219  20.9351
    21.1429  21.2056  24.9062  26.1125

     occupation numbers 
     1.0000   1.0000   1.0000   1.0000   1.0000   1.0000   1.0000   1.0000
     1.0000   1.0000   1.0000   1.0000   1.0000   1.0000   0.4447   0.4179
     0.0990   0.0533   0.0000   0.0000

          k = 0.2727 0.4545 0.4545 (  3054 PWs)   bands (ev):

   -65.9805 -65.9775 -32.4607 -32.4578 -32.2227 -32.1945 -32.0455 -32.0380
    16.7865  16.7943  17.5033  17.5331  18.7307  18.7770  20.9968  21.0070
    21.1373  21.1665  25.7430  26.3264

     occupation numbers 
     1.0000   1.0000   1.0000   1.0000   1.0000   1.0000   1.0000   1.0000
     1.0000   1.0000   1.0000   1.0000   1.0000   1.0000   0.2987   0.2805
     0.1042   0.0793   0.0000   0.0000

          k = 0.3636 0.3636 0.3636 (  3049 PWs)   bands (ev):

   -65.9877 -65.9713 -32.4371 -32.3605 -32.3605 -32.1105 -32.1105 -32.0330
    17.1362  17.4238  17.5740  17.5740  17.9614  17.9614  21.0562  21.0562
    21.0878  21.0878  24.9412  28.8198

     occupation numbers 
     1.0000   1.0000   1.0000   1.0000   1.0000   1.0000   1.0000   1.0000
     1.0000   1.0000   1.0000   1.0000   1.0000   1.0000   0.2014   0.2014
     0.1585   0.1585   0.0000   0.0000

          k = 0.3636 0.3636 0.4545 (  3049 PWs)   bands (ev):

   -65.9808 -65.9752 -32.4235 -32.3992 -32.2773 -32.1917 -32.0878 -32.0593
    17.1314  17.2457  17.5998  17.7303  18.0082  18.1682  21.0458  21.0460
    21.1361  21.1531  26.0457  27.3674

     occupation numbers 
     1.0000   1.0000   1.0000   1.0000   1.0000   1.0000   1.0000   1.0000
     1.0000   1.0000   1.0000   1.0000   1.0000   1.0000   0.2169   0.2166
     0.1052   0.0901   0.0000   0.0000

          k = 0.3636 0.4545 0.4545 (  3053 PWs)   bands (ev):

   -65.9775 -65.9756 -32.3968 -32.3807 -32.2592 -32.2114 -32.1191 -32.0985
    17.2250  17.3365  17.4980  17.6153  18.1656  18.2234  21.0967  21.0982
    21.1488  21.1546  27.1729  27.9938

     occupation numbers 
     1.0000   1.0000   1.0000   1.0000   1.0000   1.0000   1.0000   1.0000
     1.0000   1.0000   1.0000   1.0000   1.0000   1.0000   0.1475   0.1457
     0.0937   0.0888   0.0000   0.0000

          k = 0.4545 0.4545 0.4545 (  3067 PWs)   bands (ev):

   -65.9754 -65.9748 -32.3365 -32.2938 -32.2938 -32.2041 -32.2041 -32.1611
    17.4301  17.5944  17.5944  17.8292  17.8292  17.8767  21.1550  21.1550
    21.1554  21.1554  28.5710  29.7675

     occupation numbers 
     1.0000   1.0000   1.0000   1.0000   1.0000   1.0000   1.0000   1.0000
     1.0000   1.0000   1.0000   1.0000   1.0000   1.0000   0.0885   0.0885
     0.0882   0.0882   0.0000   0.0000

     the Fermi energy is    20.8952 ev

!    total energy              =    -653.78076603 Ry
     total all-electron energy =     -5086.432185 Ry
     estimated scf accuracy    <          6.4E-11 Ry
     smearing contrib. (-TS)   =      -0.01678160 Ry
     internal energy E=F+TS    =    -653.76398444 Ry

     The total energy is F=E-TS. E is the sum of the following terms:
     one-electron contribution =    -197.97038391 Ry
     hartree contribution      =     121.83841009 Ry
     xc contribution           =     -54.79155184 Ry
     ewald contribution        =    -361.38304322 Ry
     one-center paw contrib.   =    -161.45741555 Ry
      -> PAW hartree energy AE =     182.99343027 Ry
      -> PAW hartree energy PS =    -181.69223619 Ry
      -> PAW xc energy AE      =    -107.65567608 Ry
      -> PAW xc energy PS      =      25.62577445 Ry
      -> total E_H with PAW    =     123.13960417 Ry
      -> total E_XC with PAW   =    -136.82145347 Ry

     convergence has been achieved in  12 iterations

     Forces acting on atoms (cartesian axes, Ry/au):

     atom    1 type  1   force =     0.00000000    0.00000000    0.00000000
     atom    2 type  2   force =     0.00000000    0.00000000    0.00000000
     The non-local contrib.  to forces
     atom    1 type  1   force =     0.00000000    0.00000000    0.00000000
     atom    2 type  2   force =     0.00000000    0.00000000    0.00000000
     The ionic contribution  to forces
     atom    1 type  1   force =    -0.00000000   -0.00000000   -0.00000000
     atom    2 type  2   force =     0.00000000    0.00000000    0.00000000
     The local contribution  to forces
     atom    1 type  1   force =     0.00000000    0.00000000   -0.00000000
     atom    2 type  2   force =     0.00000000    0.00000000    0.00000000
     The core correction contribution to forces
     atom    1 type  1   force =     0.00000000    0.00000000    0.00000000
     atom    2 type  2   force =    -0.00000000   -0.00000000    0.00000000
     The Hubbard contrib.    to forces
     atom    1 type  1   force =     0.00000000    0.00000000    0.00000000
     atom    2 type  2   force =     0.00000000    0.00000000    0.00000000
     The SCF correction term to forces
     atom    1 type  1   force =    -0.00000000    0.00000000   -0.00000000
     atom    2 type  2   force =    -0.00000000   -0.00000000    0.00000000

     Total force =     0.000000     Total SCF correction =     0.000000


     Computing stress (Cartesian axis) and pressure

          total   stress  (Ry/bohr**3)                   (kbar)     P=       -2.04
  -0.00001384   0.00000000   0.00000000           -2.04        0.00        0.00
   0.00000000  -0.00001384   0.00000000            0.00       -2.04        0.00
   0.00000000   0.00000000  -0.00001384            0.00        0.00       -2.04

     kinetic stress (kbar) 111131.34      0.00      0.00
                                0.00 111131.34      0.00
                                0.00      0.00 111131.34

     local   stress (kbar)  22996.38      0.00     -0.00
                                0.00  22996.38      0.00
                               -0.00      0.00  22996.38

     nonloc. stress (kbar) -29787.14      0.00      0.00
                                0.00 -29787.14      0.00
                                0.00      0.00 -29787.14

     hartree stress (kbar)  43586.73     -0.00      0.00
                               -0.00  43586.73     -0.00
                                0.00     -0.00  43586.73

     exc-cor stress (kbar) -15620.17      0.00     -0.00
                                0.00 -15620.17     -0.00
                               -0.00     -0.00 -15620.17

     corecor stress (kbar)  -3027.23      0.00     -0.00
                                0.00  -3027.23     -0.00
                               -0.00     -0.00  -3027.23

     ewald   stress (kbar)-129281.94     -0.00     -0.00
                               -0.00-129281.94     -0.00
                               -0.00     -0.00-129281.94

     hubbard stress (kbar)      0.00      0.00      0.00
                                0.00      0.00      0.00
                                0.00      0.00      0.00

     DFT-D   stress (kbar)      0.00      0.00      0.00
                                0.00      0.00      0.00
                                0.00      0.00      0.00

     XDM     stress (kbar)      0.00      0.00      0.00
                                0.00      0.00      0.00
                                0.00      0.00      0.00

     dft-nl  stress (kbar)      0.00      0.00      0.00
                                0.00      0.00      0.00
                                0.00      0.00      0.00

     TS-vdW  stress (kbar)      0.00      0.00      0.00
                                0.00      0.00      0.00
                                0.00      0.00      0.00

     MDB     stress (kbar)      0.00      0.00      0.00
                                0.00      0.00      0.00
                                0.00      0.00      0.00

     3D-RISM stress (kbar)      0.00      0.00      0.00
                                0.00      0.00      0.00
                                0.00      0.00      0.00


     Writing all to output data dir ./temp/fe-afm.save/ :
     XML data file, charge density, pseudopotentials, collected wavefunctions

     init_run     :      1.56s CPU      1.77s WALL (       1 calls)
     electrons    :     37.05s CPU     39.92s WALL (       1 calls)
     forces       :      0.45s CPU      0.48s WALL (       1 calls)
     stress       :      1.82s CPU      1.99s WALL (       1 calls)

     Called by init_run:
     wfcinit      :      0.75s CPU      0.86s WALL (       1 calls)
     wfcinit:atom :      0.01s CPU      0.01s WALL (      56 calls)
     wfcinit:wfcr :      0.70s CPU      0.79s WALL (      56 calls)
     potinit      :      0.24s CPU      0.27s WALL (       1 calls)
     hinit0       :      0.33s CPU      0.35s WALL (       1 calls)

     Called by electrons:
     c_bands      :     29.29s CPU     31.66s WALL (      13 calls)
     sum_band     :      5.40s CPU      5.80s WALL (      13 calls)
     v_of_rho     :      0.24s CPU      0.25s WALL (      13 calls)
     v_h          :      0.01s CPU      0.01s WALL (      13 calls)
     v_xc         :      0.25s CPU      0.27s WALL (      15 calls)
     newd         :      1.20s CPU      1.26s WALL (      13 calls)
     PAW_pot      :      1.07s CPU      1.11s WALL (      13 calls)
     mix_rho      :      0.03s CPU      0.03s WALL (      13 calls)

     Called by c_bands:
     init_us_2    :      0.37s CPU      0.40s WALL (    1624 calls)
     cegterg      :     28.19s CPU     30.51s WALL (     728 calls)

     Called by sum_band:
     sum_band:wei :      0.01s CPU      0.01s WALL (      13 calls)
     sum_band:loo :      3.85s CPU      4.22s WALL (      13 calls)
     sum_band:buf :      0.04s CPU      0.04s WALL (     728 calls)
     sum_band:ini :      0.17s CPU      0.18s WALL (     728 calls)
     sum_band:cal :      0.97s CPU      1.04s WALL (     728 calls)
     sum_band:bec :      0.02s CPU      0.02s WALL (     728 calls)
     addusdens    :      1.15s CPU      1.18s WALL (      13 calls)
                                        0.00s GPU  (      13 calls)
     addusd:skk   :      0.00s CPU      0.00s WALL (      26 calls)
                                        0.00s GPU  (      26 calls)

     Called by *egterg:
     cdiaghg      :      1.59s CPU      1.68s WALL (    2382 calls)
     cegterg:over :      3.24s CPU      3.42s WALL (    1710 calls)
     cegterg:upda :      1.25s CPU      1.30s WALL (    1710 calls)
     cegterg:last :      2.67s CPU      2.79s WALL (    1311 calls)
     h_psi        :     15.92s CPU     17.73s WALL (    2494 calls)
     s_psi        :      1.89s CPU      1.97s WALL (    2494 calls)
     g_psi        :      0.04s CPU      0.05s WALL (    1710 calls)

     Called by h_psi:
     h_psi:calbec :      2.40s CPU      2.63s WALL (    2494 calls)
     vloc_psi     :     11.56s CPU     13.05s WALL (    2494 calls)
     add_vuspsi   :      1.91s CPU      1.99s WALL (    2494 calls)

     General routines
     calbec       :      3.75s CPU      4.07s WALL (    3502 calls)
     fft          :      0.32s CPU      0.34s WALL (     193 calls)
     ffts         :      0.15s CPU      0.16s WALL (      26 calls)
     fftw         :     12.32s CPU     13.86s WALL (   87334 calls)
     interpolate  :      0.16s CPU      0.16s WALL (      13 calls)

     Parallel routines

     PAW routines
     PAW_pot      :      1.07s CPU      1.11s WALL (      13 calls)
     PAW_symme    :      0.01s CPU      0.02s WALL (      26 calls)

     PWSCF        :     41.21s CPU     44.61s WALL


   This run was terminated on:  14:58:46  11Dec2025            

=------------------------------------------------------------------------------=
   JOB DONE.
=------------------------------------------------------------------------------=
