
     Program PWSCF v.7.3.1 starts on 25Dec2024 at 22:30:40 

     This program is part of the open-source Quantum ESPRESSO suite
     for quantum simulation of materials; please cite
         "P. Giannozzi et al., J. Phys.:Condens. Matter 21 395502 (2009);
         "P. Giannozzi et al., J. Phys.:Condens. Matter 29 465901 (2017);
         "P. Giannozzi et al., J. Chem. Phys. 152 154105 (2020);
          URL http://www.quantum-espresso.org", 
     in publications or presentations arising from this work. More details at
     http://www.quantum-espresso.org/quote

     Parallel version (MPI), running on     4 processors

     MPI processes distributed on     1 nodes
     8934 MiB available memory on the printing compute node when the environment starts

     Reading input from vc_relax.in

     Current dimensions of program PWSCF are:
     Max number of different atomic species (ntypx) = 10
     Max number of k-points (npk) =  40000
     Max angular momentum in pseudopotentials (lmaxx) =  4
     file C.pbesol-n-kjpaw_psl.1.0.0.UPF: wavefunction(s)  2S 2P renormalized

     R & G space division:  proc/nbgrp/npool/nimage =       4
     Subspace diagonalization in iterative solution of the eigenvalue problem:
     a serial algorithm will be used


     Parallelization info
     --------------------
     sticks:   dense  smooth     PW     G-vecs:    dense   smooth      PW
     Min         118      60     21                 6686     2388     447
     Max         119      61     22                 6699     2397     454
     Sum         475     241     85                26777     9563    1799

     Using Slab Decomposition



     bravais-lattice index     =            4
     lattice parameter (alat)  =       4.6625  a.u.
     unit-cell volume          =     277.6091 (a.u.)^3
     number of atoms/cell      =            4
     number of atomic types    =            1
     number of electrons       =        16.00
     number of Kohn-Sham states=           12
     kinetic-energy cutoff     =      40.0000  Ry
     charge density cutoff     =     320.0000  Ry
     scf convergence threshold =      1.0E-07
     mixing beta               =       0.7000
     number of iterations used =            8  plain     mixing
     energy convergence thresh.=      1.0E-05
     force convergence thresh. =      1.0E-04
     press convergence thresh. =      5.0E-01
     Exchange-correlation= SLA  PW   PSX  PSC
                           (   1   4  10   8   0   0   0)
     nstep                     =           50


     celldm(1)=   4.662505  celldm(2)=   0.000000  celldm(3)=   3.162607
     celldm(4)=   0.000000  celldm(5)=   0.000000  celldm(6)=   0.000000

     crystal axes: (cart. coord. in units of alat)
               a(1) = (   1.000000   0.000000   0.000000 )  
               a(2) = (  -0.500000   0.866025   0.000000 )  
               a(3) = (   0.000000   0.000000   3.162607 )  

     reciprocal axes: (cart. coord. in units 2 pi/alat)
               b(1) = (  1.000000  0.577350 -0.000000 )  
               b(2) = (  0.000000  1.154701  0.000000 )  
               b(3) = (  0.000000 -0.000000  0.316195 )  


     PseudoPot. # 1 for C  read from file:
     ./../../pseudos/C.pbesol-n-kjpaw_psl.1.0.0.UPF
     MD5 check sum: f9b2fe17d1f478429498b05d17159f9e
     Pseudo is Projector augmented-wave + core cor, Zval =  4.0
     Generated using &quot;atomic&quot; code by A. Dal Corso  v.6.3
     Shape of augmentation charge: PSQ
     Using radial grid of 1073 points,  4 beta functions with: 
                l(1) =   0
                l(2) =   0
                l(3) =   1
                l(4) =   1
     Q(r) pseudized with 0 coefficients 


     atomic species   valence    mass     pseudopotential
     C                 4.00    12.01100     C ( 1.00)

     24 Sym. Ops., with inversion, found (12 have fractional translation)



   Cartesian axes

     site n.     atom                  positions (alat units)
         1        C      tau(   1) = (   0.0000000   0.0000000   0.7906518  )
         2        C      tau(   2) = (   0.0000000   0.0000000   2.3719553  )
         3        C      tau(   3) = (   0.0000000   0.5773503   0.7906518  )
         4        C      tau(   4) = (   0.5000000   0.2886751   2.3719553  )

     --------------------------------------------
     DFT-D3 Dispersion Correction (3-body terms):
     --------------------------------------------
       Reference C6 values for interpolation: 

         atom   Coordination number   C6
         C          0.000            98.23
         C          0.987            86.49
         C          1.998            58.72
         C          2.999            51.56
         C          3.984            36.41

       Values used:

         atom   Coordination number  R0_AB[au]  C6      C8
         C          3.313            2.750     48.31   1397.35
         C          3.313            2.750     48.31   1397.35
         C          3.313            2.750     48.32   1397.37
         C          3.313            2.750     48.32   1397.37

         Molecular C6 ( Ry / a.u.^6 ) =       773.04


     number of k points=    57  Gaussian smearing, width (Ry)=  0.0200
                       cart. coord. in units 2pi/alat
        k(    1) = (   0.0000000   0.0000000   0.0000000), wk =   0.0034722
        k(    2) = (   0.0000000   0.0000000   0.0790487), wk =   0.0069444
        k(    3) = (   0.0000000   0.0000000  -0.1580974), wk =   0.0034722
        k(    4) = (   0.0000000   0.0962250   0.0000000), wk =   0.0208333
        k(    5) = (   0.0000000   0.0962250   0.0790487), wk =   0.0416667
        k(    6) = (   0.0000000   0.0962250  -0.1580974), wk =   0.0208333
        k(    7) = (   0.0000000   0.1924501   0.0000000), wk =   0.0208333
        k(    8) = (   0.0000000   0.1924501   0.0790487), wk =   0.0416667
        k(    9) = (   0.0000000   0.1924501  -0.1580974), wk =   0.0208333
        k(   10) = (   0.0000000   0.2886751   0.0000000), wk =   0.0208333
        k(   11) = (   0.0000000   0.2886751   0.0790487), wk =   0.0416667
        k(   12) = (   0.0000000   0.2886751  -0.1580974), wk =   0.0208333
        k(   13) = (   0.0000000   0.3849002   0.0000000), wk =   0.0208333
        k(   14) = (   0.0000000   0.3849002   0.0790487), wk =   0.0416667
        k(   15) = (   0.0000000   0.3849002  -0.1580974), wk =   0.0208333
        k(   16) = (   0.0000000   0.4811252   0.0000000), wk =   0.0208333
        k(   17) = (   0.0000000   0.4811252   0.0790487), wk =   0.0416667
        k(   18) = (   0.0000000   0.4811252  -0.1580974), wk =   0.0208333
        k(   19) = (   0.0000000  -0.5773503   0.0000000), wk =   0.0104167
        k(   20) = (   0.0000000  -0.5773503   0.0790487), wk =   0.0208333
        k(   21) = (   0.0000000  -0.5773503  -0.1580974), wk =   0.0104167
        k(   22) = (   0.0833333   0.1443376   0.0000000), wk =   0.0208333
        k(   23) = (   0.0833333   0.1443376   0.0790487), wk =   0.0416667
        k(   24) = (   0.0833333   0.1443376  -0.1580974), wk =   0.0208333
        k(   25) = (   0.0833333   0.2405626   0.0000000), wk =   0.0416667
        k(   26) = (   0.0833333   0.2405626   0.0790487), wk =   0.0833333
        k(   27) = (   0.0833333   0.2405626  -0.1580974), wk =   0.0416667
        k(   28) = (   0.0833333   0.3367877   0.0000000), wk =   0.0416667
        k(   29) = (   0.0833333   0.3367877   0.0790487), wk =   0.0833333
        k(   30) = (   0.0833333   0.3367877  -0.1580974), wk =   0.0416667
        k(   31) = (   0.0833333   0.4330127   0.0000000), wk =   0.0416667
        k(   32) = (   0.0833333   0.4330127   0.0790487), wk =   0.0833333
        k(   33) = (   0.0833333   0.4330127  -0.1580974), wk =   0.0416667
        k(   34) = (   0.0833333   0.5292377   0.0000000), wk =   0.0416667
        k(   35) = (   0.0833333   0.5292377   0.0790487), wk =   0.0833333
        k(   36) = (   0.0833333   0.5292377  -0.1580974), wk =   0.0416667
        k(   37) = (   0.1666667   0.2886751   0.0000000), wk =   0.0208333
        k(   38) = (   0.1666667   0.2886751   0.0790487), wk =   0.0416667
        k(   39) = (   0.1666667   0.2886751  -0.1580974), wk =   0.0208333
        k(   40) = (   0.1666667   0.3849002   0.0000000), wk =   0.0416667
        k(   41) = (   0.1666667   0.3849002   0.0790487), wk =   0.0833333
        k(   42) = (   0.1666667   0.3849002  -0.1580974), wk =   0.0416667
        k(   43) = (   0.1666667   0.4811252   0.0000000), wk =   0.0416667
        k(   44) = (   0.1666667   0.4811252   0.0790487), wk =   0.0833333
        k(   45) = (   0.1666667   0.4811252  -0.1580974), wk =   0.0416667
        k(   46) = (   0.1666667   0.5773503   0.0000000), wk =   0.0208333
        k(   47) = (   0.1666667   0.5773503   0.0790487), wk =   0.0416667
        k(   48) = (   0.1666667   0.5773503  -0.1580974), wk =   0.0208333
        k(   49) = (   0.2500000   0.4330127   0.0000000), wk =   0.0208333
        k(   50) = (   0.2500000   0.4330127   0.0790487), wk =   0.0416667
        k(   51) = (   0.2500000   0.4330127  -0.1580974), wk =   0.0208333
        k(   52) = (   0.2500000   0.5292377   0.0000000), wk =   0.0416667
        k(   53) = (   0.2500000   0.5292377   0.0790487), wk =   0.0833333
        k(   54) = (   0.2500000   0.5292377  -0.1580974), wk =   0.0416667
        k(   55) = (   0.3333333   0.5773503   0.0000000), wk =   0.0069444
        k(   56) = (   0.3333333   0.5773503   0.0790487), wk =   0.0138889
        k(   57) = (   0.3333333   0.5773503  -0.1580974), wk =   0.0069444

     Dense  grid:    26777 G-vectors     FFT dimensions: (  27,  27,  90)

     Smooth grid:     9563 G-vectors     FFT dimensions: (  20,  20,  60)

     Estimated max dynamical RAM per process >      13.48 MB

     Estimated total dynamical RAM >      53.94 MB

     Check: negative core charge=   -0.000011

     Initial potential from superposition of free atoms

     starting charge      15.9998, renormalised to      16.0000
     Starting wfcs are   16 randomized atomic wfcs
     Checking if some PAW data can be deallocated... 

     total cpu time spent up to now is        0.5 secs

     Self-consistent Calculation

     iteration #  1     ecut=    40.00 Ry     beta= 0.70
     Davidson diagonalization with overlap
     ethr =  1.00E-02,  avg # of iterations =  2.9

     total cpu time spent up to now is        1.4 secs

     total energy              =     -72.43881163 Ry
     estimated scf accuracy    <       0.37122049 Ry

     iteration #  2     ecut=    40.00 Ry     beta= 0.70
     Davidson diagonalization with overlap
     ethr =  2.32E-03,  avg # of iterations =  2.6

     total cpu time spent up to now is        1.8 secs

     total energy              =     -72.48795933 Ry
     estimated scf accuracy    <       0.00374557 Ry

     iteration #  3     ecut=    40.00 Ry     beta= 0.70
     Davidson diagonalization with overlap
     c_bands:  1 eigenvalues not converged
     ethr =  2.34E-05,  avg # of iterations =  7.2

     total cpu time spent up to now is        2.5 secs

     total energy              =     -72.48841768 Ry
     estimated scf accuracy    <       0.00026598 Ry

     iteration #  4     ecut=    40.00 Ry     beta= 0.70
     Davidson diagonalization with overlap
     ethr =  1.66E-06,  avg # of iterations =  4.1

     total cpu time spent up to now is        2.9 secs

     total energy              =     -72.48844142 Ry
     estimated scf accuracy    <       0.00000420 Ry

     iteration #  5     ecut=    40.00 Ry     beta= 0.70
     Davidson diagonalization with overlap
     ethr =  2.63E-08,  avg # of iterations =  2.9

     total cpu time spent up to now is        3.4 secs

     total energy              =     -72.48844347 Ry
     estimated scf accuracy    <       0.00000029 Ry

     iteration #  6     ecut=    40.00 Ry     beta= 0.70
     Davidson diagonalization with overlap
     ethr =  1.78E-09,  avg # of iterations =  2.1

     total cpu time spent up to now is        3.8 secs

     End of self-consistent calculation

          k = 0.0000 0.0000 0.0000 (  1193 PWs)   bands (ev):

   -14.1529 -14.0668  -2.6970  -1.8294   2.3528   2.3528   2.3571   2.3571
     8.6153  13.6477  13.6478  13.6615

          k = 0.0000 0.0000 0.0790 (  1212 PWs)   bands (ev):

   -14.1405 -14.0797  -2.5828  -1.9715   2.3531   2.3531   2.3558   2.3558
     9.0683  11.8824  13.6497  13.6504

          k = 0.0000 0.0000-0.1581 (  1194 PWs)   bands (ev):

   -14.1102 -14.1102  -2.2905  -2.2905   2.3544   2.3544   2.3544   2.3544
    10.2870  10.2870  13.6543  13.6543

          k = 0.0000 0.0962 0.0000 (  1206 PWs)   bands (ev):

   -13.9885 -13.9033  -2.4977  -1.6368   1.7009   1.7072   2.0107   2.0163
     8.8253  13.6980  13.7291  14.3461

          k = 0.0000 0.0962 0.0790 (  1197 PWs)   bands (ev):

   -13.9762 -13.9161  -2.3843  -1.7776   1.7017   1.7066   2.0120   2.0157
     9.2757  12.0719  13.7099  13.7266

          k = 0.0000 0.0962-0.1581 (  1182 PWs)   bands (ev):

   -13.9463 -13.9463  -2.0943  -2.0943   1.7043   1.7043   2.0141   2.0141
    10.4872  10.4872  13.7196  13.7198

          k = 0.0000 0.1925 0.0000 (  1182 PWs)   bands (ev):

   -13.4969 -13.4148  -1.9044  -1.0648   0.0591   0.0736   1.2133   1.2209
     9.4561  13.5580  13.6173  13.6860

          k = 0.0000 0.1925 0.0790 (  1184 PWs)   bands (ev):

   -13.4850 -13.4270  -1.7934  -1.2017   0.0612   0.0710   1.2140   1.2198
     9.8977  12.6246  13.6499  13.6818

          k = 0.0000 0.1925-0.1581 (  1194 PWs)   bands (ev):

   -13.4563 -13.4563  -1.5104  -1.5104   0.0657   0.0657   1.2170   1.2170
    11.0839  11.0839  13.6658  13.6658

          k = 0.0000 0.2887 0.0000 (  1186 PWs)   bands (ev):

   -12.6840 -12.6068  -2.0447  -2.0215  -0.9342  -0.1343   0.3280   0.3383
    10.5046  12.4747  12.6935  13.3205

          k = 0.0000 0.2887 0.0790 (  1192 PWs)   bands (ev):

   -12.6729 -12.6183  -2.0416  -2.0250  -0.8280  -0.2642   0.3294   0.3369
    10.9213  12.5056  12.6343  13.2835

          k = 0.0000 0.2887-0.1581 (  1174 PWs)   bands (ev):

   -12.6457 -12.6457  -2.0334  -2.0334  -0.5576  -0.5576   0.3337   0.3337
    11.9838  11.9840  12.7011  12.7016

          k = 0.0000 0.3849 0.0000 (  1192 PWs)   bands (ev):

   -11.5615 -11.4910  -4.2550  -4.2214  -0.4081  -0.3967   0.3686   1.0985
    10.0939  10.4520  11.9522  12.9834

          k = 0.0000 0.3849 0.0790 (  1184 PWs)   bands (ev):

   -11.5513 -11.5015  -4.2499  -4.2261  -0.4063  -0.3987   0.4665   0.9813
    10.1320  10.3878  12.3608  12.9930

          k = 0.0000 0.3849-0.1581 (  1182 PWs)   bands (ev):

   -11.5266 -11.5266  -4.2380  -4.2380  -0.4024  -0.4024   0.7144   0.7144
    10.2482  10.2482  12.9705  12.9705

          k = 0.0000 0.4811 0.0000 (  1196 PWs)   bands (ev):

   -10.1587 -10.0968  -6.3632  -6.3207  -0.8822  -0.8715   1.8640   2.4445
     7.9163   8.3484  12.7279  12.8368

          k = 0.0000 0.4811 0.0790 (  1193 PWs)   bands (ev):

   -10.1497 -10.1060  -6.3570  -6.3268  -0.8808  -0.8728   1.9445   2.3545
     7.9657   8.2717  12.7453  12.8229

          k = 0.0000 0.4811-0.1581 (  1188 PWs)   bands (ev):

   -10.1280 -10.1280  -6.3419  -6.3419  -0.8767  -0.8767   2.1448   2.1448
     8.1056   8.1056  12.7853  12.7853

          k = 0.0000-0.5774 0.0000 (  1188 PWs)   bands (ev):

    -8.8589  -8.8291  -7.8803  -7.8568  -1.0450  -1.0343   2.8499   3.1292
     6.8654   7.2195  12.6445  12.7654

          k = 0.0000-0.5774 0.0790 (  1190 PWs)   bands (ev):

    -8.8543  -8.8333  -7.8772  -7.8606  -1.0434  -1.0358   2.8948   3.0934
     6.8943   7.1452  12.6619  12.7475

          k = 0.0000-0.5774-0.1581 (  1204 PWs)   bands (ev):

    -8.8437  -8.8437  -7.8693  -7.8693  -1.0398  -1.0398   2.9983   2.9983
     6.9972   6.9972  12.7042  12.7042

          k = 0.0833 0.1443 0.0000 (  1195 PWs)   bands (ev):

   -13.6605 -13.5774  -2.1013  -1.2544   0.6686   0.6753   1.3282   1.3333
     9.2464  13.3941  13.9692  14.0249

          k = 0.0833 0.1443 0.0790 (  1192 PWs)   bands (ev):

   -13.6485 -13.5898  -1.9895  -1.3927   0.6695   0.6743   1.3291   1.3328
     9.6912  12.4489  13.9948  14.0204

          k = 0.0833 0.1443-0.1581 (  1192 PWs)   bands (ev):

   -13.6193 -13.6193  -1.7040  -1.7040   0.6719   0.6719   1.3307   1.3307
    10.8873  10.8873  14.0095  14.0096

          k = 0.0833 0.2406 0.0000 (  1191 PWs)   bands (ev):

   -13.0082 -12.9291  -1.3186  -1.0451  -1.0297  -0.5017   0.3226   0.3321
    10.0882  13.3679  13.5005  14.0921

          k = 0.0833 0.2406 0.0790 (  1192 PWs)   bands (ev):

   -12.9968 -12.9409  -1.2103  -1.0429  -1.0319  -0.6347   0.3239   0.3305
    10.5198  13.1327  13.4003  13.5566

          k = 0.0833 0.2406-0.1581 (  1192 PWs)   bands (ev):

   -12.9691 -12.9691  -1.0375  -1.0375  -0.9345  -0.9345   0.3272   0.3272
    11.6764  11.6764  13.4558  13.4559

          k = 0.0833 0.3368 0.0000 (  1189 PWs)   bands (ev):

   -12.0404 -11.9671  -3.1259  -3.0987  -0.5676  -0.5550  -0.1767   0.5875
    11.1630  11.3435  11.4245  13.8407

          k = 0.0833 0.3368 0.0790 (  1187 PWs)   bands (ev):

   -12.0299 -11.9780  -3.1218  -3.1026  -0.5659  -0.5569  -0.0748   0.4641
    11.1743  11.3738  11.7893  13.8183

          k = 0.0833 0.3368-0.1581 (  1184 PWs)   bands (ev):

   -12.0041 -12.0041  -3.1121  -3.1121  -0.5615  -0.5615   0.1840   0.1840
    11.2686  11.2686  12.8849  12.8849

          k = 0.0833 0.4330 0.0000 (  1189 PWs)   bands (ev):

   -10.7752 -10.7093  -5.2567  -5.2192  -1.2046  -1.1901   1.2508   1.9180
     8.8924   9.2688  12.9790  13.5577

          k = 0.0833 0.4330 0.0790 (  1189 PWs)   bands (ev):

   -10.7657 -10.7192  -5.2512  -5.2248  -1.2024  -1.1922   1.3413   1.8121
     8.9382   9.2053  13.3227  13.5745

          k = 0.0833 0.4330-0.1581 (  1186 PWs)   bands (ev):

   -10.7426 -10.7426  -5.2380  -5.2380  -1.1973  -1.1973   1.5691   1.5691
     9.0628   9.0628  13.5828  13.5828

          k = 0.0833 0.5292 0.0000 (  1191 PWs)   bands (ev):

    -9.2821  -9.2283  -7.2095  -7.1666  -1.5339  -1.5187   2.6755   3.0995
     7.1307   7.5001  13.3765  13.5105

          k = 0.0833 0.5292 0.0790 (  1184 PWs)   bands (ev):

    -9.2743  -9.2362  -7.2033  -7.1729  -1.5316  -1.5208   2.7380   3.0381
     7.1680   7.4300  13.3959  13.4908

          k = 0.0833 0.5292-0.1581 (  1188 PWs)   bands (ev):

    -9.2554  -9.2554  -7.1881  -7.1881  -1.5262  -1.5262   2.8883   2.8883
     7.2827   7.2827  13.4428  13.4429

          k = 0.1667 0.2887 0.0000 (  1185 PWs)   bands (ev):

   -12.2011 -12.1268  -2.3672  -2.3547  -1.0509  -1.0416  -0.3607   0.4144
    11.1388  11.6528  11.8239  14.8755

          k = 0.1667 0.2887 0.0790 (  1190 PWs)   bands (ev):

   -12.1904 -12.1379  -2.3653  -2.3564  -1.0496  -1.0430  -0.2576   0.2888
    11.5501  11.6775  11.7996  14.0552

          k = 0.1667 0.2887-0.1581 (  1190 PWs)   bands (ev):

   -12.1644 -12.1644  -2.3610  -2.3610  -1.0463  -1.0463   0.0046   0.0046
    11.7374  11.7374  12.6531  12.6531

          k = 0.1667 0.3849 0.0000 (  1191 PWs)   bands (ev):

   -11.0895 -11.0217  -4.1034  -4.0771  -2.1136  -2.0963   0.9271   1.6320
     9.6714   9.9107  12.5929  15.4501

          k = 0.1667 0.3849 0.0790 (  1187 PWs)   bands (ev):

   -11.0797 -11.0318  -4.0995  -4.0810  -2.1110  -2.0988   1.0219   1.5191
     9.7043   9.8742  12.9682  15.1063

          k = 0.1667 0.3849-0.1581 (  1194 PWs)   bands (ev):

   -11.0559 -11.0559  -4.0903  -4.0903  -2.1050  -2.1050   1.2615   1.2615
     9.7875   9.7875  13.9493  13.9493

          k = 0.1667 0.4811 0.0000 (  1179 PWs)   bands (ev):

    -9.7064  -9.6473  -6.0269  -5.9887  -2.6897  -2.6677   2.4210   2.9885
     7.7229   8.0362  14.4137  15.2388

          k = 0.1667 0.4811 0.0790 (  1186 PWs)   bands (ev):

    -9.6978  -9.6561  -6.0214  -5.9945  -2.6866  -2.6711   2.4995   2.9005
     7.7622   7.9845  14.7013  15.2553

          k = 0.1667 0.4811-0.1581 (  1182 PWs)   bands (ev):

    -9.6771  -9.6771  -6.0079  -6.0079  -2.6788  -2.6788   2.6952   2.6952
     7.8677   7.8677  15.2310  15.2310

          k = 0.1667 0.5774 0.0000 (  1176 PWs)   bands (ev):

    -8.4386  -8.4103  -7.4726  -7.4519  -2.8744  -2.8512   3.4494   3.7234
     6.7259   6.9175  15.1395  15.3630

          k = 0.1667 0.5774 0.0790 (  1174 PWs)   bands (ev):

    -8.4342  -8.4142  -7.4699  -7.4552  -2.8711  -2.8545   3.4942   3.6888
     6.7372   6.8745  15.1666  15.3233

          k = 0.1667 0.5774-0.1581 (  1176 PWs)   bands (ev):

    -8.4241  -8.4241  -7.4629  -7.4629  -2.8629  -2.8629   3.5963   3.5963
     6.7901   6.7901  15.2370  15.2370

          k = 0.2500 0.4330 0.0000 (  1183 PWs)   bands (ev):

    -9.8558  -9.7955  -5.1241  -5.1054  -3.6108  -3.5963   2.3164   2.9278
     8.0644   8.2907  14.2156  16.1166

          k = 0.2500 0.4330 0.0790 (  1183 PWs)   bands (ev):

    -9.8470  -9.8045  -5.1214  -5.1081  -3.6088  -3.5985   2.3996   2.8316
     8.0975   8.2573  14.4809  15.7842

          k = 0.2500 0.4330-0.1581 (  1192 PWs)   bands (ev):

    -9.8259  -9.8259  -5.1147  -5.1147  -3.6038  -3.6038   2.6090   2.6090
     8.1770   8.1770  15.1156  15.1156

          k = 0.2500 0.5292 0.0000 (  1169 PWs)   bands (ev):

    -8.4205  -8.3723  -6.5613  -6.5291  -4.3227  -4.2980   3.7912   4.2140
     6.5569   6.7701  16.1097  16.1548

          k = 0.2500 0.5292 0.0790 (  1171 PWs)   bands (ev):

    -8.4136  -8.3794  -6.5565  -6.5338  -4.3192  -4.3017   3.8525   4.1521
     6.5833   6.7345  15.8270  15.9383

          k = 0.2500 0.5292-0.1581 (  1180 PWs)   bands (ev):

    -8.3965  -8.3965  -6.5453  -6.5453  -4.3106  -4.3106   4.0020   4.0020
     6.6537   6.6537  15.7236  15.7236

          k = 0.3333 0.5774 0.0000 (  1173 PWs)   bands (ev):

    -7.1960  -7.1711  -7.1711  -7.1475  -5.2315  -5.2315   5.1083   5.3572
     5.3572   5.6280  15.9309  15.9309

          k = 0.3333 0.5774 0.0790 (  1173 PWs)   bands (ev):

    -7.1889  -7.1710  -7.1710  -7.1547  -5.2316  -5.2316   5.1800   5.3599
     5.3599   5.5468  15.6853  15.6853

          k = 0.3333 0.5774-0.1581 (  1182 PWs)   bands (ev):

    -7.1719  -7.1719  -7.1710  -7.1710  -5.2317  -5.2317   5.3583   5.3583
     5.3621   5.3621  15.5038  15.5038

     the Fermi energy is     5.3607 ev

!    total energy              =     -72.48844355 Ry
     total all-electron energy =      -303.604555 Ry
     estimated scf accuracy    <       0.00000004 Ry
     smearing contrib. (-TS)   =      -0.00052278 Ry
     internal energy E=F+TS    =     -72.48792077 Ry

     The total energy is F=E-TS. E is the sum of the following terms:
     one-electron contribution =     -22.93501564 Ry
     hartree contribution      =      18.85518496 Ry
     xc contribution           =     -18.30992148 Ry
     ewald contribution        =     -26.51210758 Ry
     DFT-D3 Dispersion         =      -0.02533952 Ry
     one-center paw contrib.   =     -23.56072151 Ry

     convergence has been achieved in   6 iterations

     Forces acting on atoms (cartesian axes, Ry/au):

     atom    1 type  1   force =     0.00000000    0.00000000    0.00000000
     atom    2 type  1   force =    -0.00000000   -0.00000000    0.00000000
     atom    3 type  1   force =    -0.00000000   -0.00000000    0.00000000
     atom    4 type  1   force =     0.00000000    0.00000000    0.00000000

     Total force =     0.000000     Total SCF correction =     0.000000


     Computing stress (Cartesian axis) and pressure

          total   stress  (Ry/bohr**3)                   (kbar)     P=      -36.02
  -0.00027996   0.00000000  -0.00000000          -41.18        0.00       -0.00
   0.00000000  -0.00027996  -0.00000000            0.00      -41.18       -0.00
   0.00000000  -0.00000000  -0.00017467            0.00       -0.00      -25.69


     BFGS Geometry Optimization
     Energy error            =      0.0E+00 Ry
     Gradient error          =      1.6E-25 Ry/Bohr
     Cell gradient error     =      4.1E+01 kbar

     number of scf cycles    =   1
     number of bfgs steps    =   0

     enthalpy           new  =     -72.4884435508 Ry

     new trust radius        =       0.0233227880 bohr
ibrav =      4
 celldm(1) =      4.62987224
 celldm(3) =      3.17099045
Input lattice vectors:
     0.99300104     0.00000000     0.00000000
    -0.49650052     0.85996413    -0.00000000
    -0.00000000    -0.00000000     3.14879681
New lattice vectors in INITIAL alat:
     0.99300104     0.00000000     0.00000000
    -0.49650052     0.85996413     0.00000000
     0.00000000     0.00000000     3.14879681
New lattice vectors in NEW alat (for information only):
     1.00000000     0.00000000     0.00000000
    -0.50000000     0.86602540     0.00000000
     0.00000000     0.00000000     3.17099045
Discrepancy in bohr =     0.000000    0.000000    0.000000
     new conv_thr            =       0.0000001000 Ry

     new unit-cell volume =    272.54147 a.u.^3 (    40.38648 Ang^3 )
     density =      1.97539 g/cm^3

CELL_PARAMETERS (alat=  4.66250493)
   0.993001039   0.000000000   0.000000000
  -0.496500519   0.859964126   0.000000000
   0.000000000   0.000000000   3.148796809

ATOMIC_POSITIONS (crystal)
C                0.0000000000        0.0000000000        0.2500000000
C               -0.0000000000       -0.0000000000        0.7500000000
C                0.3333333330        0.6666666660        0.2500000000
C                0.6666666660        0.3333333330        0.7500000000



     Writing config-only to output data dir ./temp/graphite.save/ :
     XML data file
     NEW-OLD atomic charge density approx. for the potential

     Check: negative core charge=   -0.000011

     total cpu time spent up to now is        5.3 secs

     Self-consistent Calculation

     iteration #  1     ecut=    40.00 Ry     beta= 0.70
     Davidson diagonalization with overlap
     ethr =  1.00E-06,  avg # of iterations =  3.7

     total cpu time spent up to now is        6.3 secs

     total energy              =     -72.48864120 Ry
     estimated scf accuracy    <       0.00028092 Ry

     iteration #  2     ecut=    40.00 Ry     beta= 0.70
     Davidson diagonalization with overlap
     ethr =  1.76E-06,  avg # of iterations =  2.6

     total cpu time spent up to now is        6.7 secs

     total energy              =     -72.48869254 Ry
     estimated scf accuracy    <       0.00000161 Ry

     iteration #  3     ecut=    40.00 Ry     beta= 0.70
     Davidson diagonalization with overlap
     ethr =  1.01E-08,  avg # of iterations =  2.4

     total cpu time spent up to now is        7.0 secs

     End of self-consistent calculation

          k = 0.0000 0.0000 0.0000 (  1193 PWs)   bands (ev):

   -14.1350 -14.0465  -2.6587  -1.7774   2.5499   2.5499   2.5541   2.5541
     8.7425  13.0230  13.9755  13.9755

          k = 0.0000 0.0000 0.0794 (  1212 PWs)   bands (ev):

   -14.1223 -14.0597  -2.5427  -1.9218   2.5502   2.5502   2.5529   2.5529
     9.2010  12.0492  13.9774  13.9781

          k = 0.0000 0.0000-0.1588 (  1194 PWs)   bands (ev):

   -14.0911 -14.0911  -2.2459  -2.2459   2.5515   2.5515   2.5515   2.5515
    10.4343  10.4343  13.9821  13.9821

          k = 0.0000 0.0969 0.0000 (  1206 PWs)   bands (ev):

   -13.9685 -13.8810  -2.4560  -1.5814   1.8926   1.8991   2.2002   2.2058
     8.9551  14.0290  14.0622  14.6884

          k = 0.0000 0.0969 0.0794 (  1197 PWs)   bands (ev):

   -13.9559 -13.8941  -2.3408  -1.7246   1.8935   1.8984   2.2014   2.2051
     9.4110  12.2417  14.0420  14.0598

          k = 0.0000 0.0969-0.1588 (  1182 PWs)   bands (ev):

   -13.9252 -13.9252  -2.0463  -2.0463   1.8961   1.8961   2.2035   2.2035
    10.6371  10.6371  14.0525  14.0526

          k = 0.0000 0.1938 0.0000 (  1182 PWs)   bands (ev):

   -13.4707 -13.3864  -1.8525  -0.9993   0.2352   0.2499   1.3859   1.3936
     9.5942  13.7528  13.9663  14.0401

          k = 0.0000 0.1938 0.0794 (  1184 PWs)   bands (ev):

   -13.4586 -13.3990  -1.7398  -1.1385   0.2374   0.2474   1.3867   1.3925
    10.0413  12.8049  14.0010  14.0356

          k = 0.0000 0.1938-0.1588 (  1194 PWs)   bands (ev):

   -13.4290 -13.4290  -1.4523  -1.4523   0.2420   0.2420   1.3897   1.3897
    11.2425  11.2425  14.0193  14.0193

          k = 0.0000 0.2907 0.0000 (  1186 PWs)   bands (ev):

   -12.6475 -12.5683  -1.8915  -1.8678  -0.8655  -0.0521   0.4834   0.4936
    10.6569  12.7977  13.0210  13.6919

          k = 0.0000 0.2907 0.0794 (  1192 PWs)   bands (ev):

   -12.6361 -12.5801  -1.8883  -1.8714  -0.7575  -0.1842   0.4848   0.4922
    11.0799  12.8227  12.9552  13.6235

          k = 0.0000 0.2907-0.1588 (  1174 PWs)   bands (ev):

   -12.6082 -12.6082  -1.8799  -1.8799  -0.4826  -0.4826   0.4889   0.4889
    12.1706  12.1708  13.0194  13.0197

          k = 0.0000 0.3876 0.0000 (  1192 PWs)   bands (ev):

   -11.5103 -11.4380  -4.1280  -4.0938  -0.2666  -0.2552   0.4608   1.2039
    10.3612  10.7296  12.1267  13.3689

          k = 0.0000 0.3876 0.0794 (  1184 PWs)   bands (ev):

   -11.4998 -11.4487  -4.1229  -4.0987  -0.2648  -0.2572   0.5604   1.0844
    10.3995  10.6627  12.5481  13.3764

          k = 0.0000 0.3876-0.1588 (  1182 PWs)   bands (ev):

   -11.4744 -11.4744  -4.1108  -4.1108  -0.2609  -0.2609   0.8127   0.8127
    10.5185  10.5185  13.3206  13.3206

          k = 0.0000 0.4845 0.0000 (  1196 PWs)   bands (ev):

   -10.0865 -10.0230  -6.2651  -6.2216  -0.7494  -0.7385   1.9852   2.5772
     8.1338   8.5782  13.1183  13.2275

          k = 0.0000 0.4845 0.0794 (  1193 PWs)   bands (ev):

   -10.0773 -10.0324  -6.2588  -6.2279  -0.7479  -0.7399   2.0672   2.4854
     8.1845   8.4991  13.1371  13.2155

          k = 0.0000 0.4845-0.1588 (  1188 PWs)   bands (ev):

   -10.0550 -10.0550  -6.2434  -6.2434  -0.7438  -0.7438   2.2714   2.2714
     8.3280   8.3280  13.1784  13.1785

          k = 0.0000-0.5814 0.0000 (  1188 PWs)   bands (ev):

    -8.7430  -8.7125  -7.8279  -7.8040  -0.9152  -0.9042   2.9935   3.2776
     7.0576   7.4223  13.0393  13.1644

          k = 0.0000-0.5814 0.0794 (  1190 PWs)   bands (ev):

    -8.7383  -8.7167  -7.8248  -7.8079  -0.9135  -0.9058   3.0393   3.2412
     7.0873   7.3456  13.0573  13.1458

          k = 0.0000-0.5814-0.1588 (  1204 PWs)   bands (ev):

    -8.7273  -8.7273  -7.8168  -7.8168  -0.9098  -0.9098   3.1446   3.1446
     7.1931   7.1931  13.1010  13.1010

          k = 0.0839 0.1454 0.0000 (  1195 PWs)   bands (ev):

   -13.6364 -13.5510  -2.0528  -1.1923   0.8526   0.8594   1.5030   1.5080
     9.3817  13.5838  14.3025  14.3635

          k = 0.0839 0.1454 0.0794 (  1192 PWs)   bands (ev):

   -13.6241 -13.5638  -1.9392  -1.3329   0.8536   0.8585   1.5038   1.5074
     9.8320  12.6248  14.3305  14.3588

          k = 0.0839 0.1454-0.1588 (  1192 PWs)   bands (ev):

   -13.5941 -13.5941  -1.6493  -1.6493   0.8560   0.8560   1.5055   1.5055
    11.0430  11.0430  14.3472  14.3473

          k = 0.0839 0.2423 0.0000 (  1191 PWs)   bands (ev):

   -12.9759 -12.8947  -1.2566  -0.8778  -0.8620  -0.4262   0.4782   0.4878
    10.2349  13.7155  13.8431  14.4491

          k = 0.0839 0.2423 0.0794 (  1192 PWs)   bands (ev):

   -12.9642 -12.9068  -1.1466  -0.8756  -0.8643  -0.5614   0.4795   0.4862
    10.6721  13.3349  13.7502  13.8992

          k = 0.0839 0.2423-0.1588 (  1192 PWs)   bands (ev):

   -12.9357 -12.9357  -0.8724  -0.8724  -0.8639  -0.8639   0.4829   0.4829
    11.8441  11.8441  13.8083  13.8083

          k = 0.0839 0.3392 0.0000 (  1189 PWs)   bands (ev):

   -11.9956 -11.9204  -2.9832  -2.9555  -0.4268  -0.4140  -0.0945   0.6831
    11.4584  11.5076  11.7272  14.2236

          k = 0.0839 0.3392 0.0794 (  1187 PWs)   bands (ev):

   -11.9848 -11.9316  -2.9791  -2.9595  -0.4250  -0.4159   0.0092   0.5573
    11.4616  11.6718  11.9714  14.1753

          k = 0.0839 0.3392-0.1588 (  1184 PWs)   bands (ev):

   -11.9584 -11.9584  -2.9692  -2.9692  -0.4205  -0.4205   0.2724   0.2724
    11.5636  11.5636  13.0786  13.0786

          k = 0.0839 0.4361 0.0000 (  1189 PWs)   bands (ev):

   -10.7130 -10.6455  -5.1415  -5.1032  -1.0739  -1.0592   1.3595   2.0393
     9.1352   9.5224  13.1719  13.9520

          k = 0.0839 0.4361 0.0794 (  1189 PWs)   bands (ev):

   -10.7033 -10.6556  -5.1359  -5.1089  -1.0717  -1.0613   1.4516   1.9313
     9.1820   9.4568  13.5427  13.9667

          k = 0.0839 0.4361-0.1588 (  1186 PWs)   bands (ev):

   -10.6796 -10.6796  -5.1225  -5.1225  -1.0665  -1.0665   1.6836   1.6836
     9.3100   9.3100  13.9665  13.9665

          k = 0.0839 0.5330 0.0000 (  1191 PWs)   bands (ev):

    -9.1919  -9.1363  -7.1282  -7.0838  -1.4084  -1.3930   2.8138   3.2464
     7.3324   7.7130  13.7761  13.9147

          k = 0.0839 0.5330 0.0794 (  1184 PWs)   bands (ev):

    -9.1839  -9.1445  -7.1218  -7.0903  -1.4060  -1.3952   2.8775   3.1837
     7.3707   7.6406  13.7962  13.8943

          k = 0.0839 0.5330-0.1588 (  1188 PWs)   bands (ev):

    -9.1643  -9.1643  -7.1061  -7.1061  -1.4006  -1.4006   3.0308   3.0308
     7.4887   7.4887  13.8448  13.8448

          k = 0.1678 0.2907 0.0000 (  1185 PWs)   bands (ev):

   -12.1584 -12.0822  -2.2066  -2.1939  -0.9225  -0.9131  -0.2819   0.5066
    11.3002  11.9645  12.1397  15.0937

          k = 0.1678 0.2907 0.0794 (  1190 PWs)   bands (ev):

   -12.1475 -12.0936  -2.2047  -2.1957  -0.9213  -0.9145  -0.1771   0.3788
    11.7176  11.9898  12.1145  14.2598

          k = 0.1678 0.2907-0.1588 (  1190 PWs)   bands (ev):

   -12.1208 -12.1208  -2.2003  -2.2003  -0.9179  -0.9179   0.0896   0.0896
    12.0511  12.0511  12.8357  12.8357

          k = 0.1678 0.3876 0.0000 (  1191 PWs)   bands (ev):

   -11.0320 -10.9626  -3.9647  -3.9378  -1.9993  -1.9815   1.0293   1.7472
     9.9390  10.1845  12.7749  15.8429

          k = 0.1678 0.3876 0.0794 (  1187 PWs)   bands (ev):

   -11.0220 -10.9729  -3.9607  -3.9417  -1.9967  -1.9841   1.1258   1.6322
     9.9727  10.1470  13.1564  15.3446

          k = 0.1678 0.3876-0.1588 (  1194 PWs)   bands (ev):

   -10.9976 -10.9976  -3.9512  -3.9512  -1.9905  -1.9905   1.3697   1.3697
    10.0580  10.0580  14.1541  14.1542

          k = 0.1678 0.4845 0.0000 (  1179 PWs)   bands (ev):

    -9.6282  -9.5676  -5.9187  -5.8794  -2.5798  -2.5574   2.5521   3.1309
     7.9466   8.2689  14.6247  15.6495

          k = 0.1678 0.4845 0.0794 (  1186 PWs)   bands (ev):

    -9.6194  -9.5766  -5.9130  -5.8853  -2.5766  -2.5608   2.6321   3.0411
     7.9870   8.2157  14.9207  15.6623

          k = 0.1678 0.4845-0.1588 (  1182 PWs)   bands (ev):

    -9.5981  -9.5981  -5.8991  -5.8991  -2.5687  -2.5687   2.8317   2.8317
     8.0955   8.0955  15.5537  15.5537

          k = 0.1678 0.5814 0.0000 (  1176 PWs)   bands (ev):

    -8.3201  -8.2911  -7.4074  -7.3860  -2.7660  -2.7423   3.6034   3.8821
     6.9255   7.1247  15.5530  15.7886

          k = 0.1678 0.5814 0.0794 (  1174 PWs)   bands (ev):

    -8.3156  -8.2951  -7.4046  -7.3895  -2.7626  -2.7457   3.6490   3.8470
     6.9374   7.0801  15.5807  15.7450

          k = 0.1678 0.5814-0.1588 (  1176 PWs)   bands (ev):

    -8.3052  -8.3052  -7.3974  -7.3974  -2.7542  -2.7542   3.7530   3.7530
     6.9925   6.9925  15.6528  15.6528

          k = 0.2518 0.4361 0.0000 (  1183 PWs)   bands (ev):

    -9.7808  -9.7190  -4.9836  -4.9645  -3.5300  -3.5152   2.4447   3.0681
     8.3023   8.5333  14.4220  16.3575

          k = 0.2518 0.4361 0.0794 (  1183 PWs)   bands (ev):

    -9.7718  -9.7282  -4.9808  -4.9673  -3.5279  -3.5175   2.5295   2.9700
     8.3361   8.4992  14.6924  16.0217

          k = 0.2518 0.4361-0.1588 (  1192 PWs)   bands (ev):

    -9.7502  -9.7502  -4.9740  -4.9740  -3.5229  -3.5229   2.7430   2.7430
     8.4173   8.4173  15.3401  15.3401

          k = 0.2518 0.5330 0.0000 (  1169 PWs)   bands (ev):

    -8.3193  -8.2695  -6.4499  -6.4162  -4.2480  -4.2222   3.9490   4.3806
     6.7642   6.9823  16.3506  16.3887

          k = 0.2518 0.5330 0.0794 (  1171 PWs)   bands (ev):

    -8.3121  -8.2769  -6.4450  -6.4211  -4.2443  -4.2260   4.0116   4.3174
     6.7912   6.9458  16.0600  16.1734

          k = 0.2518 0.5330-0.1588 (  1180 PWs)   bands (ev):

    -8.2945  -8.2945  -6.4332  -6.4332  -4.2353  -4.2353   4.1642   4.1642
     6.8633   6.8633  15.9565  15.9565

          k = 0.3357 0.5814 0.0000 (  1173 PWs)   bands (ev):

    -7.0698  -7.0442  -7.0442  -7.0203  -5.1987  -5.1987   5.2914   5.5452
     5.5452   5.8205  16.1500  16.1500

          k = 0.3357 0.5814 0.0794 (  1173 PWs)   bands (ev):

    -7.0626  -7.0441  -7.0441  -7.0276  -5.1989  -5.1989   5.3643   5.5479
     5.5479   5.7378  15.9058  15.9058

          k = 0.3357 0.5814-0.1588 (  1182 PWs)   bands (ev):

    -7.0452  -7.0452  -7.0441  -7.0441  -5.1991  -5.1991   5.5458   5.5458
     5.5503   5.5503  15.7239  15.7239

     the Fermi energy is     5.5486 ev

!    total energy              =     -72.48869281 Ry
     total all-electron energy =      -303.604804 Ry
     estimated scf accuracy    <       0.00000010 Ry
     smearing contrib. (-TS)   =      -0.00052009 Ry
     internal energy E=F+TS    =     -72.48817273 Ry

     The total energy is F=E-TS. E is the sum of the following terms:
     one-electron contribution =     -22.91856715 Ry
     hartree contribution      =      18.95268478 Ry
     xc contribution           =     -18.37466157 Ry
     ewald contribution        =     -26.55882971 Ry
     DFT-D3 Dispersion         =      -0.02549100 Ry
     one-center paw contrib.   =     -23.56330808 Ry

     convergence has been achieved in   3 iterations

     Forces acting on atoms (cartesian axes, Ry/au):

     atom    1 type  1   force =     0.00000000   -0.00000000    0.00000000
     atom    2 type  1   force =     0.00000000    0.00000000    0.00000000
     atom    3 type  1   force =    -0.00000000   -0.00000000    0.00000000
     atom    4 type  1   force =     0.00000000    0.00000000    0.00000000

     Total force =     0.000000     Total SCF correction =     0.000000


     Computing stress (Cartesian axis) and pressure

          total   stress  (Ry/bohr**3)                   (kbar)     P=       17.61
   0.00026557   0.00000000   0.00000000           39.07        0.00        0.00
   0.00000000   0.00026557   0.00000000            0.00       39.07        0.00
   0.00000000   0.00000000  -0.00017204            0.00        0.00      -25.31

     Energy error            =      2.5E-04 Ry
     Gradient error          =      2.8E-25 Ry/Bohr
     Cell gradient error     =      3.9E+01 kbar

     number of scf cycles    =   2
     number of bfgs steps    =   1

     enthalpy           old  =     -72.4884435508 Ry
     enthalpy           new  =     -72.4886928147 Ry

     CASE: enthalpy          _new < enthalpy          _old

     new trust radius        =       0.0113651273 bohr
ibrav =      4
 celldm(1) =      4.64255598
 celldm(3) =      3.15144195
Input lattice vectors:
     0.99572141     0.00000000     0.00000000
    -0.49786070     0.86232004    -0.00000000
    -0.00000000    -0.00000000     3.13795822
New lattice vectors in INITIAL alat:
     0.99572141     0.00000000     0.00000000
    -0.49786070     0.86232004     0.00000000
     0.00000000     0.00000000     3.13795822
New lattice vectors in NEW alat (for information only):
     1.00000000     0.00000000     0.00000000
    -0.50000000     0.86602540     0.00000000
     0.00000000     0.00000000     3.15144195
Discrepancy in bohr =     0.000000    0.000000    0.000000
     new conv_thr            =       0.0000000010 Ry

     new unit-cell volume =    273.09352 a.u.^3 (    40.46828 Ang^3 )
     density =      1.97139 g/cm^3

CELL_PARAMETERS (alat=  4.66250493)
   0.995721409   0.000000000   0.000000000
  -0.497860704   0.862320035   0.000000000
   0.000000000   0.000000000   3.137958223

ATOMIC_POSITIONS (crystal)
C                0.0000000000        0.0000000000        0.2500000000
C               -0.0000000000       -0.0000000000        0.7500000000
C                0.3333333330        0.6666666660        0.2500000000
C                0.6666666660        0.3333333330        0.7500000000



     Writing config-only to output data dir ./temp/graphite.save/ :
     XML data file
     NEW-OLD atomic charge density approx. for the potential

     Check: negative core charge=   -0.000011

     total cpu time spent up to now is        8.7 secs

     Self-consistent Calculation

     iteration #  1     ecut=    40.00 Ry     beta= 0.70
     Davidson diagonalization with overlap
     ethr =  1.00E-06,  avg # of iterations =  2.4

     total cpu time spent up to now is        9.5 secs

     total energy              =     -72.48908130 Ry
     estimated scf accuracy    <       0.00003285 Ry

     iteration #  2     ecut=    40.00 Ry     beta= 0.70
     Davidson diagonalization with overlap
     ethr =  2.05E-07,  avg # of iterations =  2.4

     total cpu time spent up to now is        9.9 secs

     total energy              =     -72.48908650 Ry
     estimated scf accuracy    <       0.00000045 Ry

     iteration #  3     ecut=    40.00 Ry     beta= 0.70
     Davidson diagonalization with overlap
     ethr =  2.81E-09,  avg # of iterations =  2.1

     total cpu time spent up to now is       10.3 secs

     total energy              =     -72.48908657 Ry
     estimated scf accuracy    <       0.00000005 Ry

     iteration #  4     ecut=    40.00 Ry     beta= 0.70
     Davidson diagonalization with overlap
     ethr =  3.39E-10,  avg # of iterations =  2.1

     total cpu time spent up to now is       10.7 secs

     total energy              =     -72.48908658 Ry
     estimated scf accuracy    <       0.00000002 Ry

     iteration #  5     ecut=    40.00 Ry     beta= 0.70
     Davidson diagonalization with overlap
     ethr =  1.16E-10,  avg # of iterations =  1.1

     total cpu time spent up to now is       11.0 secs

     End of self-consistent calculation

          k = 0.0000 0.0000 0.0000 (  1193 PWs)   bands (ev):

   -14.0946 -14.0027  -2.6372  -1.7332   2.5219   2.5219   2.5264   2.5264
     8.7593  13.0787  13.8965  13.8965

          k = 0.0000 0.0000 0.0797 (  1212 PWs)   bands (ev):

   -14.0814 -14.0165  -2.5184  -1.8816   2.5223   2.5223   2.5252   2.5252
     9.2236  12.0993  13.8985  13.8992

          k = 0.0000 0.0000-0.1593 (  1194 PWs)   bands (ev):

   -14.0491 -14.0491  -2.2143  -2.2143   2.5237   2.5237   2.5237   2.5237
    10.4705  10.4705  13.9034  13.9034

          k = 0.0000 0.0966 0.0000 (  1206 PWs)   bands (ev):

   -13.9289 -13.8381  -2.4358  -1.5386   1.8667   1.8736   2.1752   2.1811
     8.9706  13.2657  13.9489  13.9821

          k = 0.0000 0.0966 0.0797 (  1197 PWs)   bands (ev):

   -13.9158 -13.8517  -2.3178  -1.6858   1.8676   1.8728   2.1765   2.1805
     9.4322  12.2898  13.9617  13.9794

          k = 0.0000 0.0966-0.1593 (  1182 PWs)   bands (ev):

   -13.8839 -13.8839  -2.0160  -2.0160   1.8704   1.8704   2.1787   2.1787
    10.6718  10.6718  13.9719  13.9720

          k = 0.0000 0.1933 0.0000 (  1182 PWs)   bands (ev):

   -13.4334 -13.3459  -1.8360  -0.9608   0.2153   0.2308   1.3674   1.3756
     9.6057  13.7977  13.8791  13.9526

          k = 0.0000 0.1933 0.0797 (  1184 PWs)   bands (ev):

   -13.4208 -13.3590  -1.7206  -1.1039   0.2175   0.2281   1.3683   1.3744
    10.0583  12.8452  13.9142  13.9481

          k = 0.0000 0.1933-0.1593 (  1194 PWs)   bands (ev):

   -13.3902 -13.3902  -1.4260  -1.4260   0.2225   0.2225   1.3715   1.3715
    11.2721  11.2721  13.9312  13.9312

          k = 0.0000 0.2899 0.0000 (  1186 PWs)   bands (ev):

   -12.6141 -12.5319  -1.9026  -1.8778  -0.8552  -0.0207   0.4717   0.4825
    10.6615  12.7169  12.9485  13.5949

          k = 0.0000 0.2899 0.0797 (  1192 PWs)   bands (ev):

   -12.6023 -12.5442  -1.8993  -1.8816  -0.7447  -0.1566   0.4732   0.4810
    11.0890  12.7485  12.8843  13.5490

          k = 0.0000 0.2899-0.1593 (  1174 PWs)   bands (ev):

   -12.5734 -12.5734  -1.8905  -1.8905  -0.4629  -0.4629   0.4776   0.4776
    12.1810  12.1810  12.9483  12.9484

          k = 0.0000 0.3866 0.0000 (  1192 PWs)   bands (ev):

   -11.4825 -11.4074  -4.1291  -4.0934  -0.2729  -0.2609   0.4626   1.2250
    10.2998  10.6776  12.1205  13.2659

          k = 0.0000 0.3866 0.0797 (  1184 PWs)   bands (ev):

   -11.4717 -11.4186  -4.1238  -4.0984  -0.2710  -0.2629   0.5647   1.1022
    10.3394  10.6094  12.5430  13.2752

          k = 0.0000 0.3866-0.1593 (  1182 PWs)   bands (ev):

   -11.4453 -11.4453  -4.1111  -4.1111  -0.2669  -0.2669   0.8233   0.8233
    10.4618  10.4618  13.2402  13.2402

          k = 0.0000 0.4832 0.0000 (  1196 PWs)   bands (ev):

   -10.0667 -10.0007  -6.2551  -6.2098  -0.7523  -0.7408   1.9775   2.5848
     8.0917   8.5460  13.0128  13.1274

          k = 0.0000 0.4832 0.0797 (  1193 PWs)   bands (ev):

   -10.0572 -10.0105  -6.2485  -6.2163  -0.7507  -0.7423   2.0616   2.4905
     8.1432   8.4649  13.0318  13.1137

          k = 0.0000 0.4832-0.1593 (  1188 PWs)   bands (ev):

   -10.0340 -10.0340  -6.2324  -6.2324  -0.7464  -0.7464   2.2710   2.2710
     8.2897   8.2897  13.0745  13.0745

          k = 0.0000-0.5798 0.0000 (  1188 PWs)   bands (ev):

    -8.7398  -8.7080  -7.7992  -7.7743  -0.9169  -0.9054   2.9807   3.2731
     7.0288   7.3994  12.9318  13.0610

          k = 0.0000-0.5798 0.0797 (  1190 PWs)   bands (ev):

    -8.7348  -8.7124  -7.7960  -7.7784  -0.9152  -0.9070   3.0279   3.2358
     7.0582   7.3208  12.9504  13.0417

          k = 0.0000-0.5798-0.1593 (  1204 PWs)   bands (ev):

    -8.7235  -8.7235  -7.7877  -7.7877  -0.9112  -0.9112   3.1366   3.1366
     7.1652   7.1652  12.9955  12.9955

          k = 0.0837 0.1450 0.0000 (  1195 PWs)   bands (ev):

   -13.5983 -13.5097  -2.0351  -1.1523   0.8298   0.8370   1.4838   1.4891
     9.3945  13.6329  14.2217  14.2814

          k = 0.0837 0.1450 0.0797 (  1192 PWs)   bands (ev):

   -13.5855 -13.5230  -1.9188  -1.2969   0.8308   0.8360   1.4847   1.4886
     9.8505  12.6686  14.2492  14.2766

          k = 0.0837 0.1450-0.1593 (  1192 PWs)   bands (ev):

   -13.5545 -13.5545  -1.6217  -1.6217   0.8333   0.8333   1.4864   1.4864
    11.0744  11.0744  14.2650  14.2651

          k = 0.0837 0.2416 0.0000 (  1191 PWs)   bands (ev):

   -12.9410 -12.8566  -1.2438  -0.8943  -0.8777  -0.3920   0.4664   0.4766
    10.2423  13.6265  13.7667  14.3586

          k = 0.0837 0.2416 0.0797 (  1192 PWs)   bands (ev):

   -12.9288 -12.8692  -1.1312  -0.8919  -0.8801  -0.5310   0.4678   0.4748
    10.6847  13.3590  13.6604  13.8207

          k = 0.0837 0.2416-0.1593 (  1192 PWs)   bands (ev):

   -12.8993 -12.8993  -0.8863  -0.8863  -0.8437  -0.8437   0.4714   0.4714
    11.8683  11.8683  13.7195  13.7195

          k = 0.0837 0.3382 0.0000 (  1189 PWs)   bands (ev):

   -11.9654 -11.8873  -2.9902  -2.9613  -0.4329  -0.4194  -0.0891   0.7086
    11.3872  11.5066  11.6637  14.1219

          k = 0.0837 0.3382 0.0797 (  1187 PWs)   bands (ev):

   -11.9542 -11.8989  -2.9860  -2.9655  -0.4310  -0.4214   0.0171   0.5794
    11.3961  11.6090  11.9685  14.0913

          k = 0.0837 0.3382-0.1593 (  1184 PWs)   bands (ev):

   -11.9268 -11.9268  -2.9757  -2.9757  -0.4262  -0.4262   0.2869   0.2869
    11.4978  11.4978  13.0878  13.0878

          k = 0.0837 0.4349 0.0000 (  1189 PWs)   bands (ev):

   -10.6894 -10.6192  -5.1381  -5.0981  -1.0761  -1.0606   1.3557   2.0530
     9.0832   9.4798  13.1572  13.8452

          k = 0.0837 0.4349 0.0797 (  1189 PWs)   bands (ev):

   -10.6793 -10.6297  -5.1322  -5.1040  -1.0738  -1.0628   1.4500   1.9421
     9.1312   9.4126  13.5227  13.8617

          k = 0.0837 0.4349-0.1593 (  1186 PWs)   bands (ev):

   -10.6547 -10.6547  -5.1182  -5.1182  -1.0683  -1.0683   1.6879   1.6879
     9.2622   9.2622  13.8680  13.8680

          k = 0.0837 0.5315 0.0000 (  1191 PWs)   bands (ev):

    -9.1790  -9.1213  -7.1116  -7.0655  -1.4085  -1.3923   2.8013   3.2453
     7.2984   7.6863  13.6665  13.8093

          k = 0.0837 0.5315 0.0797 (  1184 PWs)   bands (ev):

    -9.1706  -9.1298  -7.1050  -7.0723  -1.4061  -1.3946   2.8667   3.1811
     7.3370   7.6121  13.6872  13.7883

          k = 0.0837 0.5315-0.1593 (  1188 PWs)   bands (ev):

    -9.1504  -9.1504  -7.0887  -7.0887  -1.4004  -1.4004   3.0242   3.0242
     7.4569   7.4569  13.7373  13.7373

          k = 0.1674 0.2899 0.0000 (  1185 PWs)   bands (ev):

   -12.1274 -12.0482  -2.2203  -2.2070  -0.9236  -0.9137  -0.2753   0.5336
    11.3007  11.8882  12.0689  15.1195

          k = 0.1674 0.2899 0.0797 (  1190 PWs)   bands (ev):

   -12.1161 -12.0601  -2.2183  -2.2089  -0.9222  -0.9152  -0.1679   0.4023
    11.7225  11.9143  12.0430  14.2828

          k = 0.1674 0.2899-0.1593 (  1190 PWs)   bands (ev):

   -12.0883 -12.0883  -2.2137  -2.2137  -0.9187  -0.9187   0.1054   0.1054
    11.9775  11.9775  12.8511  12.8511

          k = 0.1674 0.3866 0.0000 (  1191 PWs)   bands (ev):

   -11.0066 -10.9344  -3.9701  -3.9421  -1.9951  -1.9765   1.0275   1.7640
     9.8790  10.1313  12.7654  15.7351

          k = 0.1674 0.3866 0.0797 (  1187 PWs)   bands (ev):

   -10.9962 -10.9451  -3.9660  -3.9462  -1.9923  -1.9792   1.1264   1.6458
     9.9136  10.0928  13.1504  15.3405

          k = 0.1674 0.3866-0.1593 (  1194 PWs)   bands (ev):

   -10.9709 -10.9709  -3.9561  -3.9561  -1.9859  -1.9859   1.3764   1.3764
    10.0013  10.0013  14.1546  14.1546

          k = 0.1674 0.4832 0.0000 (  1179 PWs)   bands (ev):

    -9.6107  -9.5477  -5.9125  -5.8716  -2.5740  -2.5505   2.5407   3.1345
     7.9032   8.2331  14.6008  15.5350

          k = 0.1674 0.4832 0.0797 (  1186 PWs)   bands (ev):

    -9.6016  -9.5571  -5.9066  -5.8777  -2.5707  -2.5541   2.6227   3.0423
     7.9445   8.1786  14.8972  15.5502

          k = 0.1674 0.4832-0.1593 (  1182 PWs)   bands (ev):

    -9.5795  -9.5795  -5.8922  -5.8922  -2.5624  -2.5623   2.8274   2.8274
     8.0554   8.0554  15.4900  15.4900

          k = 0.1674 0.5798 0.0000 (  1176 PWs)   bands (ev):

    -8.3178  -8.2876  -7.3837  -7.3615  -2.7596  -2.7349   3.5865   3.8734
     6.8958   7.0969  15.4370  15.6757

          k = 0.1674 0.5798 0.0797 (  1174 PWs)   bands (ev):

    -8.3132  -8.2918  -7.3808  -7.3651  -2.7561  -2.7384   3.6336   3.8375
     6.9072   7.0513  15.4652  15.6319

          k = 0.1674 0.5798-0.1593 (  1176 PWs)   bands (ev):

    -8.3023  -8.3023  -7.3733  -7.3733  -2.7473  -2.7473   3.7409   3.7409
     6.9623   6.9623  15.5388  15.5388

          k = 0.2511 0.4349 0.0000 (  1183 PWs)   bands (ev):

    -9.7621  -9.6978  -4.9897  -4.9697  -3.5125  -3.4971   2.4338   3.0735
     8.2540   8.4919  14.4004  16.3379

          k = 0.2511 0.4349 0.0797 (  1183 PWs)   bands (ev):

    -9.7528  -9.7074  -4.9867  -4.9725  -3.5103  -3.4994   2.5208   2.9727
     8.2888   8.4568  14.6718  15.9989

          k = 0.2511 0.4349-0.1593 (  1192 PWs)   bands (ev):

    -9.7303  -9.7303  -4.9796  -4.9796  -3.5051  -3.5051   2.7397   2.7397
     8.3725   8.3725  15.3188  15.3188

          k = 0.2511 0.5315 0.0000 (  1169 PWs)   bands (ev):

    -8.3106  -8.2589  -6.4448  -6.4099  -4.2285  -4.2018   3.9289   4.3719
     6.7288   6.9530  16.3110  16.3582

          k = 0.2511 0.5315 0.0797 (  1171 PWs)   bands (ev):

    -8.3031  -8.2665  -6.4396  -6.4150  -4.2247  -4.2058   3.9932   4.3071
     6.7565   6.9153  16.0167  16.1337

          k = 0.2511 0.5315-0.1593 (  1180 PWs)   bands (ev):

    -8.2849  -8.2849  -6.4275  -6.4275  -4.2154  -4.2154   4.1499   4.1499
     6.8305   6.8305  15.9112  15.9112

          k = 0.3348 0.5798 0.0000 (  1173 PWs)   bands (ev):

    -7.0710  -7.0444  -7.0444  -7.0194  -5.1618  -5.1618   5.2597   5.5205
     5.5205   5.8047  16.1199  16.1199

          k = 0.3348 0.5798 0.0797 (  1173 PWs)   bands (ev):

    -7.0635  -7.0443  -7.0443  -7.0270  -5.1620  -5.1620   5.3346   5.5234
     5.5234   5.7193  15.8668  15.8668

          k = 0.3348 0.5798-0.1593 (  1182 PWs)   bands (ev):

    -7.0454  -7.0454  -7.0443  -7.0443  -5.1622  -5.1622   5.5215   5.5215
     5.5259   5.5259  15.6799  15.6799

     the Fermi energy is     5.5242 ev

!    total energy              =     -72.48908659 Ry
     total all-electron energy =      -303.605198 Ry
     estimated scf accuracy    <          5.8E-11 Ry
     smearing contrib. (-TS)   =      -0.00051562 Ry
     internal energy E=F+TS    =     -72.48857097 Ry

     The total energy is F=E-TS. E is the sum of the following terms:
     one-electron contribution =     -22.44144866 Ry
     hartree contribution      =      18.70247808 Ry
     xc contribution           =     -18.34956537 Ry
     ewald contribution        =     -26.81216234 Ry
     DFT-D3 Dispersion         =      -0.02558835 Ry
     one-center paw contrib.   =     -23.56228432 Ry

     convergence has been achieved in   5 iterations

     Forces acting on atoms (cartesian axes, Ry/au):

     atom    1 type  1   force =     0.00000000    0.00000000    0.00000000
     atom    2 type  1   force =    -0.00000000   -0.00000000    0.00000000
     atom    3 type  1   force =     0.00000000    0.00000000    0.00000000
     atom    4 type  1   force =     0.00000000   -0.00000000    0.00000000

     Total force =     0.000000     Total SCF correction =     0.000000


     Computing stress (Cartesian axis) and pressure

          total   stress  (Ry/bohr**3)                   (kbar)     P=       -3.35
   0.00004972   0.00000000   0.00000000            7.31        0.00        0.00
   0.00000000   0.00004972  -0.00000000            0.00        7.31       -0.00
   0.00000000  -0.00000000  -0.00016767            0.00       -0.00      -24.67

     Energy error            =      3.9E-04 Ry
     Gradient error          =      9.0E-26 Ry/Bohr
     Cell gradient error     =      2.5E+01 kbar

     number of scf cycles    =   3
     number of bfgs steps    =   2

     enthalpy           old  =     -72.4886928147 Ry
     enthalpy           new  =     -72.4890865854 Ry

     CASE: enthalpy          _new < enthalpy          _old

     new trust radius        =       0.0251150395 bohr
ibrav =      4
 celldm(1) =      4.64859547
 celldm(3) =      3.12343133
Input lattice vectors:
     0.99701674    -0.00000000     0.00000000
    -0.49850837     0.86344183    -0.00000000
     0.00000000    -0.00000000     3.11411333
New lattice vectors in INITIAL alat:
     0.99701674     0.00000000     0.00000000
    -0.49850837     0.86344183     0.00000000
     0.00000000     0.00000000     3.11411333
New lattice vectors in NEW alat (for information only):
     1.00000000     0.00000000     0.00000000
    -0.50000000     0.86602540     0.00000000
     0.00000000     0.00000000     3.12343133
Discrepancy in bohr =     0.000000    0.000000    0.000000
     new conv_thr            =       0.0000000010 Ry

     new unit-cell volume =    271.72391 a.u.^3 (    40.26533 Ang^3 )
     density =      1.98133 g/cm^3

CELL_PARAMETERS (alat=  4.66250493)
   0.997016742   0.000000000   0.000000000
  -0.498508371   0.863441826   0.000000000
   0.000000000   0.000000000   3.114113332

ATOMIC_POSITIONS (crystal)
C                0.0000000000        0.0000000000        0.2500000000
C               -0.0000000000       -0.0000000000        0.7500000000
C                0.3333333330        0.6666666660        0.2500000000
C                0.6666666660        0.3333333330        0.7500000000



     Writing config-only to output data dir ./temp/graphite.save/ :
     XML data file
     NEW-OLD atomic charge density approx. for the potential

     Check: negative core charge=   -0.000011

     total cpu time spent up to now is       12.6 secs

     Self-consistent Calculation

     iteration #  1     ecut=    40.00 Ry     beta= 0.70
     Davidson diagonalization with overlap
     ethr =  1.00E-06,  avg # of iterations =  3.3

     Threshold (ethr) on eigenvalues was too large:
     Diagonalizing with lowered threshold

     Davidson diagonalization with overlap
     ethr =  6.62E-08,  avg # of iterations =  1.5

     total cpu time spent up to now is       13.8 secs

     total energy              =     -72.48942772 Ry
     estimated scf accuracy    <       0.00001136 Ry

     iteration #  2     ecut=    40.00 Ry     beta= 0.70
     Davidson diagonalization with overlap
     ethr =  7.10E-08,  avg # of iterations =  1.3

     total cpu time spent up to now is       14.1 secs

     total energy              =     -72.48942858 Ry
     estimated scf accuracy    <       0.00000077 Ry

     iteration #  3     ecut=    40.00 Ry     beta= 0.70
     Davidson diagonalization with overlap
     ethr =  4.84E-09,  avg # of iterations =  1.1

     total cpu time spent up to now is       14.4 secs

     total energy              =     -72.48942862 Ry
     estimated scf accuracy    <       0.00000003 Ry

     iteration #  4     ecut=    40.00 Ry     beta= 0.70
     Davidson diagonalization with overlap
     ethr =  1.98E-10,  avg # of iterations =  2.5

     total cpu time spent up to now is       14.9 secs

     total energy              =     -72.48942863 Ry
     estimated scf accuracy    <          9.2E-09 Ry

     iteration #  5     ecut=    40.00 Ry     beta= 0.70
     Davidson diagonalization with overlap
     ethr =  5.75E-11,  avg # of iterations =  1.5

     total cpu time spent up to now is       15.2 secs

     End of self-consistent calculation

          k = 0.0000 0.0000 0.0000 (  1193 PWs)   bands (ev):

   -14.0194 -13.9207  -2.5848  -1.6357   2.5674   2.5674   2.5722   2.5722
     8.8449  13.2532  13.9174  13.9174

          k = 0.0000 0.0000 0.0803 (  1212 PWs)   bands (ev):

   -14.0052 -13.9355  -2.4605  -1.7922   2.5678   2.5678   2.5710   2.5710
     9.3216  12.2587  13.9196  13.9203

          k = 0.0000 0.0000-0.1606 (  1194 PWs)   bands (ev):

   -13.9705 -13.9705  -2.1419  -2.1419   2.5693   2.5693   2.5693   2.5693
    10.5979  10.5979  13.9248  13.9248

          k = 0.0000 0.0965 0.0000 (  1206 PWs)   bands (ev):

   -13.8540 -13.7564  -2.3838  -1.4420   1.9130   1.9206   2.2220   2.2285
     9.0554  13.4382  13.9694  14.0036

          k = 0.0000 0.0965 0.0803 (  1197 PWs)   bands (ev):

   -13.8400 -13.7711  -2.2604  -1.5971   1.9140   1.9197   2.2233   2.2277
     9.5292  12.4471  13.9825  14.0007

          k = 0.0000 0.0965-0.1606 (  1182 PWs)   bands (ev):

   -13.8058 -13.8058  -1.9442  -1.9442   1.9170   1.9170   2.2257   2.2257
    10.7978  10.7978  13.9927  13.9927

          k = 0.0000 0.1930 0.0000 (  1182 PWs)   bands (ev):

   -13.3596 -13.2655  -1.7856  -0.8665   0.2641   0.2810   1.4172   1.4262
     9.6877  13.8956  13.9609  13.9714

          k = 0.0000 0.1930 0.0803 (  1184 PWs)   bands (ev):

   -13.3461 -13.2796  -1.6648  -1.0175   0.2665   0.2781   1.4182   1.4249
    10.1521  12.9940  13.9328  13.9670

          k = 0.0000 0.1930-0.1606 (  1194 PWs)   bands (ev):

   -13.3131 -13.3131  -1.3560  -1.3560   0.2720   0.2720   1.4216   1.4216
    11.3937  11.3937  13.9487  13.9487

          k = 0.0000 0.2895 0.0000 (  1186 PWs)   bands (ev):

   -12.5420 -12.4535  -1.8500  -1.8229  -0.8072   0.0693   0.5245   0.5365
    10.7387  12.7318  12.9798  13.6056

          k = 0.0000 0.2895 0.0803 (  1192 PWs)   bands (ev):

   -12.5293 -12.4667  -1.8463  -1.8270  -0.6914  -0.0739   0.5262   0.5348
    11.1765  12.7699  12.9148  13.5745

          k = 0.0000 0.2895-0.1606 (  1174 PWs)   bands (ev):

   -12.4982 -12.4982  -1.8367  -1.8367  -0.3960  -0.3960   0.5310   0.5310
    12.2811  12.2811  12.9805  12.9805

          k = 0.0000 0.3861 0.0000 (  1192 PWs)   bands (ev):

   -11.4128 -11.3319  -4.0719  -4.0332  -0.2175  -0.2043   0.5076   1.3088
    10.3211  10.7199  12.1900  13.2733

          k = 0.0000 0.3861 0.0803 (  1184 PWs)   bands (ev):

   -11.4012 -11.3440  -4.0662  -4.0387  -0.2155  -0.2065   0.6146   1.1794
    10.3632  10.6481  12.6200  13.2845

          k = 0.0000 0.3861-0.1606 (  1182 PWs)   bands (ev):

   -11.3728 -11.3728  -4.0524  -4.0524  -0.2109  -0.2109   0.8859   0.8859
    10.4925  10.4925  13.2626  13.2626

          k = 0.0000 0.4826 0.0000 (  1196 PWs)   bands (ev):

   -10.0006  -9.9294  -6.1930  -6.1440  -0.6953  -0.6826   2.0201   2.6588
     8.1219   8.5989  13.0180  13.1419

          k = 0.0000 0.4826 0.0803 (  1193 PWs)   bands (ev):

    -9.9903  -9.9400  -6.1859  -6.1510  -0.6936  -0.6843   2.1084   2.5596
     8.1755   8.5132  13.0381  13.1265

          k = 0.0000 0.4826-0.1606 (  1188 PWs)   bands (ev):

    -9.9653  -9.9653  -6.1685  -6.1685  -0.6888  -0.6888   2.3286   2.3286
     8.3288   8.3288  13.0838  13.0838

          k = 0.0000-0.5791 0.0000 (  1188 PWs)   bands (ev):

    -8.6805  -8.6461  -7.7276  -7.7007  -0.8594  -0.8466   3.0254   3.3343
     7.0696   7.4552  12.9359  13.0741

          k = 0.0000-0.5791 0.0803 (  1190 PWs)   bands (ev):

    -8.6751  -8.6509  -7.7242  -7.7052  -0.8575  -0.8484   3.0756   3.2952
     7.0989   7.3722  12.9558  13.0535

          k = 0.0000-0.5791-0.1606 (  1204 PWs)   bands (ev):

    -8.6628  -8.6628  -7.7152  -7.7152  -0.8531  -0.8531   3.1908   3.1908
     7.2090   7.2090  13.0041  13.0041

          k = 0.0836 0.1448 0.0000 (  1195 PWs)   bands (ev):

   -13.5241 -13.4289  -1.9842  -1.0573   0.8775   0.8854   1.5333   1.5392
     9.4774  13.8011  14.2420  14.3022

          k = 0.0836 0.1448 0.0803 (  1192 PWs)   bands (ev):

   -13.5104 -13.4431  -1.8624  -1.2096   0.8786   0.8843   1.5343   1.5385
     9.9453  12.8217  14.2700  14.2971

          k = 0.0836 0.1448-0.1606 (  1192 PWs)   bands (ev):

   -13.4770 -13.4770  -1.5511  -1.5511   0.8814   0.8814   1.5362   1.5362
    11.1976  11.1976  14.2852  14.2852

          k = 0.0836 0.2413 0.0000 (  1191 PWs)   bands (ev):

   -12.8682 -12.7774  -1.1949  -0.8439  -0.8258  -0.3002   0.5193   0.5304
    10.3215  13.6388  13.7947  14.3733

          k = 0.0836 0.2413 0.0803 (  1192 PWs)   bands (ev):

   -12.8551 -12.7910  -1.0770  -0.8413  -0.8284  -0.4467   0.5208   0.5285
    10.7752  13.4839  13.6745  13.8557

          k = 0.0836 0.2413-0.1606 (  1192 PWs)   bands (ev):

   -12.8233 -12.8233  -0.8351  -0.8351  -0.7756  -0.7756   0.5247   0.5247
    11.9852  11.9852  13.7356  13.7356

          k = 0.0836 0.3378 0.0000 (  1189 PWs)   bands (ev):

   -11.8947 -11.8106  -2.9357  -2.9043  -0.3774  -0.3626  -0.0429   0.7952
    11.4055  11.5800  11.6985  14.1300

          k = 0.0836 0.3378 0.0803 (  1187 PWs)   bands (ev):

   -11.8826 -11.8231  -2.9311  -2.9089  -0.3754  -0.3648   0.0683   0.6590
    11.4190  11.6423  12.0488  14.1104

          k = 0.0836 0.3378-0.1606 (  1184 PWs)   bands (ev):

   -11.8531 -11.8531  -2.9199  -2.9199  -0.3702  -0.3702   0.3513   0.3513
    11.5248  11.5248  13.1918  13.1918

          k = 0.0836 0.4343 0.0000 (  1189 PWs)   bands (ev):

   -10.6216 -10.5460  -5.0789  -5.0356  -1.0189  -1.0019   1.3988   2.1320
     9.1090   9.5265  13.2206  13.8504

          k = 0.0836 0.4343 0.0803 (  1189 PWs)   bands (ev):

   -10.6107 -10.5573  -5.0726  -5.0421  -1.0163  -1.0044   1.4978   2.0151
     9.1592   9.4556  13.5870  13.8694

          k = 0.0836 0.4343-0.1606 (  1186 PWs)   bands (ev):

   -10.5842 -10.5842  -5.0574  -5.0574  -1.0103  -1.0103   1.7476   1.7476
     9.2971   9.2971  13.8804  13.8804

          k = 0.0836 0.5308 0.0000 (  1191 PWs)   bands (ev):

    -9.1158  -9.0538  -7.0464  -6.9967  -1.3503  -1.3326   2.8440   3.3114
     7.3350   7.7404  13.6695  13.8217

          k = 0.0836 0.5308 0.0803 (  1184 PWs)   bands (ev):

    -9.1069  -9.0629  -7.0392  -7.0040  -1.3477  -1.3351   2.9129   3.2440
     7.3744   7.6621  13.6915  13.7992

          k = 0.0836 0.5308-0.1606 (  1188 PWs)   bands (ev):

    -9.0850  -9.0850  -7.0217  -7.0217  -1.3414  -1.3414   3.0790   3.0790
     7.4990   7.4990  13.7448  13.7448

          k = 0.1672 0.2895 0.0000 (  1185 PWs)   bands (ev):

   -12.0563 -11.9711  -2.1685  -2.1539  -0.8656  -0.8548  -0.2287   0.6211
    11.3752  11.9058  12.0977  15.2619

          k = 0.1672 0.2895 0.0803 (  1190 PWs)   bands (ev):

   -12.0441 -11.9839  -2.1663  -2.1560  -0.8641  -0.8564  -0.1162   0.4827
    11.8071  11.9335  12.0705  14.4140

          k = 0.1672 0.2895-0.1606 (  1190 PWs)   bands (ev):

   -12.0142 -12.0142  -2.1613  -2.1613  -0.8603  -0.8603   0.1705   0.1705
    12.0006  12.0006  12.9604  12.9604

          k = 0.1672 0.3861 0.0000 (  1191 PWs)   bands (ev):

   -10.9380 -10.8602  -3.9148  -3.8844  -1.9349  -1.9147   1.0711   1.8454
     9.9029  10.1698  12.8329  15.7389

          k = 0.1672 0.3861 0.0803 (  1187 PWs)   bands (ev):

   -10.9268 -10.8718  -3.9104  -3.8889  -1.9319  -1.9177   1.1748   1.7207
     9.9395  10.1291  13.2267  15.4346

          k = 0.1672 0.3861-0.1606 (  1194 PWs)   bands (ev):

   -10.8995 -10.8995  -3.8997  -3.8997  -1.9249  -1.9249   1.4373   1.4373
    10.0323  10.0323  14.2491  14.2491

          k = 0.1672 0.4826 0.0000 (  1179 PWs)   bands (ev):

    -9.5456  -9.4776  -5.8521  -5.8079  -2.5132  -2.4877   2.5818   3.2065
     7.9344   8.2814  14.6581  15.5349

          k = 0.1672 0.4826 0.0803 (  1186 PWs)   bands (ev):

    -9.5357  -9.4878  -5.8457  -5.8145  -2.5096  -2.4916   2.6679   3.1094
     7.9776   8.2239  14.9583  15.5521

          k = 0.1672 0.4826-0.1606 (  1182 PWs)   bands (ev):

    -9.5119  -9.5119  -5.8301  -5.8301  -2.5006  -2.5006   2.8832   2.8832
     8.0940   8.0940  15.5195  15.5195

          k = 0.1672 0.5791 0.0000 (  1176 PWs)   bands (ev):

    -8.2589  -8.2263  -7.3143  -7.2904  -2.6986  -2.6717   3.6294   3.9323
     6.9388   7.1467  15.4357  15.6855

          k = 0.1672 0.5791 0.0803 (  1174 PWs)   bands (ev):

    -8.2539  -8.2308  -7.3112  -7.2944  -2.6947  -2.6756   3.6794   3.8948
     6.9495   7.0986  15.4651  15.6396

          k = 0.1672 0.5791-0.1606 (  1176 PWs)   bands (ev):

    -8.2421  -8.2421  -7.3033  -7.3033  -2.6853  -2.6853   3.7931   3.7931
     7.0054   7.0054  15.5421  15.5421

          k = 0.2507 0.4343 0.0000 (  1183 PWs)   bands (ev):

    -9.6965  -9.6271  -4.9344  -4.9127  -3.4459  -3.4292   2.4745   3.1475
     8.2837   8.5357  14.4591  16.4153

          k = 0.2507 0.4343 0.0803 (  1183 PWs)   bands (ev):

    -9.6864  -9.6375  -4.9312  -4.9158  -3.4436  -3.4318   2.5658   3.0411
     8.3206   8.4985  14.7344  16.0692

          k = 0.2507 0.4343-0.1606 (  1192 PWs)   bands (ev):

    -9.6621  -9.6621  -4.9235  -4.9235  -3.4379  -3.4379   2.7959   2.7959
     8.4092   8.4092  15.3858  15.3858

          k = 0.2507 0.5308 0.0000 (  1169 PWs)   bands (ev):

    -8.2493  -8.1935  -6.3846  -6.3471  -4.1613  -4.1324   3.9680   4.4346
     6.7659   7.0026  16.3558  16.4146

          k = 0.2507 0.5308 0.0803 (  1171 PWs)   bands (ev):

    -8.2413  -8.2018  -6.3791  -6.3526  -4.1572  -4.1368   4.0358   4.3665
     6.7948   6.9626  16.0513  16.1753

          k = 0.2507 0.5308-0.1606 (  1180 PWs)   bands (ev):

    -8.2216  -8.2216  -6.3661  -6.3661  -4.1471  -4.1471   4.2010   4.2010
     6.8728   6.8728  15.9424  15.9424

          k = 0.3343 0.5791 0.0000 (  1173 PWs)   bands (ev):

    -7.0145  -6.9857  -6.9857  -6.9585  -5.0856  -5.0856   5.2912   5.5664
     5.5664   5.8677  16.1700  16.1700

          k = 0.3343 0.5791 0.0803 (  1173 PWs)   bands (ev):

    -7.0063  -6.9856  -6.9856  -6.9668  -5.0858  -5.0858   5.3702   5.5697
     5.5697   5.7772  15.9023  15.9023

          k = 0.3343 0.5791-0.1606 (  1182 PWs)   bands (ev):

    -6.9867  -6.9867  -6.9855  -6.9855  -5.0861  -5.0861   5.5678   5.5678
     5.5726   5.5726  15.7071  15.7071

     the Fermi energy is     5.5705 ev

!    total energy              =     -72.48942863 Ry
     total all-electron energy =      -303.605540 Ry
     estimated scf accuracy    <          1.8E-10 Ry
     smearing contrib. (-TS)   =      -0.00050690 Ry
     internal energy E=F+TS    =     -72.48892173 Ry

     The total energy is F=E-TS. E is the sum of the following terms:
     one-electron contribution =     -21.66095614 Ry
     hartree contribution      =      18.34108868 Ry
     xc contribution           =     -18.33778262 Ry
     ewald contribution        =     -27.24369005 Ry
     DFT-D3 Dispersion         =      -0.02580284 Ry
     one-center paw contrib.   =     -23.56177876 Ry

     convergence has been achieved in   5 iterations

     Forces acting on atoms (cartesian axes, Ry/au):

     atom    1 type  1   force =    -0.00000000    0.00000000    0.00000000
     atom    2 type  1   force =    -0.00000000   -0.00000000    0.00000000
     atom    3 type  1   force =     0.00000000    0.00000000    0.00000000
     atom    4 type  1   force =    -0.00000000   -0.00000000    0.00000000

     Total force =     0.000000     Total SCF correction =     0.000000


     Computing stress (Cartesian axis) and pressure

          total   stress  (Ry/bohr**3)                   (kbar)     P=      -12.99
  -0.00005099  -0.00000000   0.00000000           -7.50       -0.00        0.00
   0.00000000  -0.00005099   0.00000000            0.00       -7.50        0.00
   0.00000000   0.00000000  -0.00016291            0.00        0.00      -23.96

     Energy error            =      3.4E-04 Ry
     Gradient error          =      2.8E-25 Ry/Bohr
     Cell gradient error     =      2.4E+01 kbar

     number of scf cycles    =   4
     number of bfgs steps    =   3

     enthalpy           old  =     -72.4890865854 Ry
     enthalpy           new  =     -72.4894286318 Ry

     CASE: enthalpy          _new < enthalpy          _old

     new trust radius        =       0.0378657098 bohr
ibrav =      4
 celldm(1) =      4.65296095
 celldm(3) =      3.08466019
Input lattice vectors:
     0.99795304     0.00000000    -0.00000000
    -0.49897652     0.86425268     0.00000000
     0.00000000     0.00000000     3.07834600
New lattice vectors in INITIAL alat:
     0.99795304     0.00000000     0.00000000
    -0.49897652     0.86425268     0.00000000
     0.00000000     0.00000000     3.07834600
New lattice vectors in NEW alat (for information only):
     1.00000000     0.00000000     0.00000000
    -0.50000000     0.86602540     0.00000000
     0.00000000     0.00000000     3.08466019
Discrepancy in bohr =     0.000000    0.000000    0.000000
     new conv_thr            =       0.0000000010 Ry

     new unit-cell volume =    269.10774 a.u.^3 (    39.87765 Ang^3 )
     density =      2.00059 g/cm^3

CELL_PARAMETERS (alat=  4.66250493)
   0.997953036   0.000000000   0.000000000
  -0.498976518   0.864252681   0.000000000
   0.000000000   0.000000000   3.078345996

ATOMIC_POSITIONS (crystal)
C                0.0000000000        0.0000000000        0.2500000000
C               -0.0000000000       -0.0000000000        0.7500000000
C                0.3333333330        0.6666666660        0.2500000000
C                0.6666666660        0.3333333330        0.7500000000



     Writing config-only to output data dir ./temp/graphite.save/ :
     XML data file
     NEW-OLD atomic charge density approx. for the potential

     Check: negative core charge=   -0.000012

     total cpu time spent up to now is       16.8 secs

     Self-consistent Calculation

     iteration #  1     ecut=    40.00 Ry     beta= 0.70
     Davidson diagonalization with overlap
     ethr =  1.00E-06,  avg # of iterations =  3.6

     total cpu time spent up to now is       17.8 secs

     total energy              =     -72.48988214 Ry
     estimated scf accuracy    <       0.00001624 Ry

     iteration #  2     ecut=    40.00 Ry     beta= 0.70
     Davidson diagonalization with overlap
     ethr =  1.01E-07,  avg # of iterations =  1.0

     total cpu time spent up to now is       18.1 secs

     total energy              =     -72.48988248 Ry
     estimated scf accuracy    <       0.00000144 Ry

     iteration #  3     ecut=    40.00 Ry     beta= 0.70
     Davidson diagonalization with overlap
     ethr =  9.02E-09,  avg # of iterations =  1.3

     total cpu time spent up to now is       18.4 secs

     total energy              =     -72.48988255 Ry
     estimated scf accuracy    <       0.00000005 Ry

     iteration #  4     ecut=    40.00 Ry     beta= 0.70
     Davidson diagonalization with overlap
     ethr =  3.16E-10,  avg # of iterations =  2.2

     total cpu time spent up to now is       18.8 secs

     total energy              =     -72.48988257 Ry
     estimated scf accuracy    <          2.0E-09 Ry

     iteration #  5     ecut=    40.00 Ry     beta= 0.70
     Davidson diagonalization with overlap
     ethr =  1.27E-11,  avg # of iterations =  2.5

     total cpu time spent up to now is       19.2 secs

     End of self-consistent calculation

          k = 0.0000 0.0000 0.0000 (  1193 PWs)   bands (ev):

   -13.9082 -13.7984  -2.5047  -1.4857   2.6600   2.6600   2.6655   2.6655
     8.9889  13.5355  13.9921  13.9921

          k = 0.0000 0.0000 0.0812 (  1212 PWs)   bands (ev):

   -13.8925 -13.8149  -2.3718  -1.6547   2.6606   2.6606   2.6643   2.6643
     9.4847  12.5172  13.9945  13.9954

          k = 0.0000 0.0000-0.1624 (  1194 PWs)   bands (ev):

   -13.8540 -13.8540  -2.0308  -2.0308   2.6622   2.6622   2.6622   2.6622
    10.8067  10.8067  14.0004  14.0004

          k = 0.0000 0.0964 0.0000 (  1206 PWs)   bands (ev):

   -13.7430 -13.6345  -2.3040  -1.2927   2.0061   2.0150   2.3156   2.3230
     9.1984  13.7179  14.0437  14.0800

          k = 0.0000 0.0964 0.0812 (  1197 PWs)   bands (ev):

   -13.7275 -13.6508  -2.1721  -1.4602   2.0073   2.0138   2.3169   2.3221
     9.6911  12.7027  14.0576  14.0767

          k = 0.0000 0.0964-0.1624 (  1182 PWs)   bands (ev):

   -13.6894 -13.6894  -1.8335  -1.8335   2.0107   2.0107   2.3197   2.3197
    11.0049  11.0049  14.0680  14.0680

          k = 0.0000 0.1928 0.0000 (  1182 PWs)   bands (ev):

   -13.2493 -13.1445  -1.7066  -0.7195   0.3587   0.3780   1.5127   1.5232
     9.8277  13.9665  14.0467  14.2263

          k = 0.0000 0.1928 0.0812 (  1184 PWs)   bands (ev):

   -13.2342 -13.1602  -1.5775  -0.8825   0.3615   0.3747   1.5139   1.5217
    10.3104  13.2368  14.0083  14.0428

          k = 0.0000 0.1928-0.1624 (  1194 PWs)   bands (ev):

   -13.1976 -13.1976  -1.2467  -1.2467   0.3678   0.3678   1.5179   1.5179
    11.5953  11.5953  14.0218  14.0218

          k = 0.0000 0.2893 0.0000 (  1186 PWs)   bands (ev):

   -12.4327 -12.3341  -1.7530  -1.7222  -0.7294   0.2125   0.6223   0.6359
    10.8737  12.7962  13.0698  13.6711

          k = 0.0000 0.2893 0.0812 (  1192 PWs)   bands (ev):

   -12.4186 -12.3489  -1.7487  -1.7269  -0.6056   0.0578   0.6242   0.6340
    11.3276  12.8419  13.0027  13.6527

          k = 0.0000 0.2893-0.1624 (  1174 PWs)   bands (ev):

   -12.3840 -12.3840  -1.7378  -1.7378  -0.2889  -0.2889   0.6296   0.6296
    12.4500  12.4500  13.0747  13.0747

          k = 0.0000 0.3857 0.0000 (  1192 PWs)   bands (ev):

   -11.3051 -11.2149  -3.9720  -3.9284  -0.1180  -0.1029   0.5842   1.4459
    10.3875  10.8197  12.3165  13.3358

          k = 0.0000 0.3857 0.0812 (  1184 PWs)   bands (ev):

   -11.2922 -11.2284  -3.9656  -3.9346  -0.1157  -0.1054   0.6988   1.3061
    10.4333  10.7420  12.7586  13.3497

          k = 0.0000 0.3857-0.1624 (  1182 PWs)   bands (ev):

   -11.2605 -11.2605  -3.9501  -3.9501  -0.1105  -0.1105   0.9900   0.9900
    10.5737  10.5737  13.3401  13.3401

          k = 0.0000 0.4821 0.0000 (  1196 PWs)   bands (ev):

    -9.8951  -9.8157  -6.0897  -6.0348  -0.5946  -0.5800   2.0974   2.7851
     8.1947   8.7075  13.0780  13.2161

          k = 0.0000 0.4821 0.0812 (  1193 PWs)   bands (ev):

    -9.8837  -9.8276  -6.0818  -6.0427  -0.5927  -0.5820   2.1923   2.6781
     8.2514   8.6147  13.0999  13.1984

          k = 0.0000 0.4821-0.1624 (  1188 PWs)   bands (ev):

    -9.8558  -9.8558  -6.0623  -6.0623  -0.5872  -0.5872   2.4291   2.4291
     8.4155   8.4155  13.1505  13.1505

          k = 0.0000-0.5785 0.0000 (  1188 PWs)   bands (ev):

    -8.5789  -8.5404  -7.6167  -7.5866  -0.7584  -0.7436   3.1089   3.4432
     7.1550   7.5642  12.9949  13.1476

          k = 0.0000-0.5785 0.0812 (  1190 PWs)   bands (ev):

    -8.5729  -8.5457  -7.6129  -7.5917  -0.7562  -0.7457   3.1637   3.4017
     7.1840   7.4741  13.0168  13.1248

          k = 0.0000-0.5785-0.1624 (  1204 PWs)   bands (ev):

    -8.5590  -8.5590  -7.6029  -7.6029  -0.7511  -0.7511   3.2892   3.2892
     7.2988   7.2988  13.0702  13.0702

          k = 0.0835 0.1446 0.0000 (  1195 PWs)   bands (ev):

   -13.4136 -13.3076  -1.9049  -0.9095   0.9716   0.9807   1.6289   1.6356
     9.6185  14.0752  14.3163  14.3784

          k = 0.0835 0.1446 0.0812 (  1192 PWs)   bands (ev):

   -13.3984 -13.3235  -1.7748  -1.0741   0.9730   0.9794   1.6300   1.6348
    10.1050  13.0716  14.3460  14.3728

          k = 0.0835 0.1446-0.1624 (  1192 PWs)   bands (ev):

   -13.3612 -13.3612  -1.4413  -1.4413   0.9762   0.9762   1.6322   1.6322
    11.4013  11.4013  14.3602  14.3602

          k = 0.0835 0.2411 0.0000 (  1191 PWs)   bands (ev):

   -12.7585 -12.6574  -1.1166  -0.7481  -0.7276  -0.1554   0.6170   0.6298
    10.4586  13.7027  13.8803  14.4426

          k = 0.0835 0.2411 0.0812 (  1192 PWs)   bands (ev):

   -12.7440 -12.6726  -0.9906  -0.7452  -0.7305  -0.3137   0.6188   0.6277
    10.9300  13.6712  13.7476  13.9706

          k = 0.0835 0.2411-0.1624 (  1192 PWs)   bands (ev):

   -12.7086 -12.7086  -0.7381  -0.7381  -0.6676  -0.6676   0.6233   0.6233
    12.1809  12.1809  13.8065  13.8065

          k = 0.0835 0.3375 0.0000 (  1189 PWs)   bands (ev):

   -11.7863 -11.6926  -2.8375  -2.8020  -0.2780  -0.2610   0.0341   0.9352
    11.4715  11.7110  11.7906  14.1931

          k = 0.0835 0.3375 0.0812 (  1187 PWs)   bands (ev):

   -11.7729 -11.7066  -2.8322  -2.8072  -0.2756  -0.2635   0.1531   0.7880
    11.4903  11.7311  12.1931  14.1833

          k = 0.0835 0.3375-0.1624 (  1184 PWs)   bands (ev):

   -11.7400 -11.7400  -2.8197  -2.8197  -0.2696  -0.2696   0.4567   0.4567
    11.6038  11.6038  13.3713  13.3713

          k = 0.0835 0.4339 0.0000 (  1189 PWs)   bands (ev):

   -10.5151 -10.4307  -4.9776  -4.9290  -0.9181  -0.8988   1.4751   2.2642
     9.1785   9.6295  13.3404  13.9110

          k = 0.0835 0.4339 0.0812 (  1189 PWs)   bands (ev):

   -10.5030 -10.4433  -4.9705  -4.9363  -0.9153  -0.9016   1.5813   2.1379
     9.2324   9.5525  13.7067  13.9341

          k = 0.0835 0.4339-0.1624 (  1186 PWs)   bands (ev):

   -10.4733 -10.4733  -4.9535  -4.9535  -0.9084  -0.9084   1.8496   1.8496
     9.3811   9.3811  13.9497  13.9497

          k = 0.0835 0.5303 0.0000 (  1191 PWs)   bands (ev):

    -9.0123  -8.9430  -6.9409  -6.8853  -1.2489  -1.2288   2.9237   3.4278
     7.4152   7.8485  13.7275  13.8947

          k = 0.0835 0.5303 0.0812 (  1184 PWs)   bands (ev):

    -9.0023  -8.9532  -6.9329  -6.8935  -1.2460  -1.2317   2.9982   3.3555
     7.4559   7.7635  13.7515  13.8698

          k = 0.0835 0.5303-0.1624 (  1188 PWs)   bands (ev):

    -8.9779  -8.9779  -6.9133  -6.9133  -1.2388  -1.2388   3.1777   3.1777
     7.5879   7.5879  13.8100  13.8100

          k = 0.1670 0.2893 0.0000 (  1185 PWs)   bands (ev):

   -11.9477 -11.8527  -2.0716  -2.0551  -0.7641  -0.7519  -0.1516   0.7620
    11.5074  11.9731  12.1828  15.5016

          k = 0.1670 0.2893 0.0812 (  1190 PWs)   bands (ev):

   -11.9341 -11.8670  -2.0691  -2.0574  -0.7624  -0.7537  -0.0312   0.6124
    11.9548  12.0034  12.1537  14.6346

          k = 0.1670 0.2893-0.1624 (  1190 PWs)   bands (ev):

   -11.9009 -11.9009  -2.0634  -2.0634  -0.7581  -0.7581   0.2763   0.2763
    12.0765  12.0765  13.1468  13.1468

          k = 0.1670 0.3857 0.0000 (  1191 PWs)   bands (ev):

   -10.8310 -10.7442  -3.8159  -3.7818  -1.8321  -1.8093   1.1471   1.9802
     9.9733  10.2634  12.9577  15.7977

          k = 0.1670 0.3857 0.0812 (  1187 PWs)   bands (ev):

   -10.8185 -10.7571  -3.8109  -3.7868  -1.8288  -1.8126   1.2582   1.8455
    10.0131  10.2190  13.3652  15.5944

          k = 0.1670 0.3857-0.1624 (  1194 PWs)   bands (ev):

   -10.7881 -10.7881  -3.7989  -3.7989  -1.8208  -1.8208   1.5401   1.5401
    10.1139  10.1139  14.4162  14.4162

[...]
        k(   36) = (   0.0836325   0.5311378  -0.1869837), wk =   0.0416667
        k(   37) = (   0.1672650   0.2897115   0.0000000), wk =   0.0208333
        k(   38) = (   0.1672650   0.2897115   0.0934918), wk =   0.0416667
        k(   39) = (   0.1672650   0.2897115  -0.1869837), wk =   0.0208333
        k(   40) = (   0.1672650   0.3862820   0.0000000), wk =   0.0416667
        k(   41) = (   0.1672650   0.3862820   0.0934918), wk =   0.0833333
        k(   42) = (   0.1672650   0.3862820  -0.1869837), wk =   0.0416667
        k(   43) = (   0.1672650   0.4828525   0.0000000), wk =   0.0416667
        k(   44) = (   0.1672650   0.4828525   0.0934918), wk =   0.0833333
        k(   45) = (   0.1672650   0.4828525  -0.1869837), wk =   0.0416667
        k(   46) = (   0.1672650   0.5794230   0.0000000), wk =   0.0208333
        k(   47) = (   0.1672650   0.5794230   0.0934918), wk =   0.0416667
        k(   48) = (   0.1672650   0.5794230  -0.1869837), wk =   0.0208333
        k(   49) = (   0.2508975   0.4345673   0.0000000), wk =   0.0208333
        k(   50) = (   0.2508975   0.4345673   0.0934918), wk =   0.0416667
        k(   51) = (   0.2508975   0.4345673  -0.1869837), wk =   0.0208333
        k(   52) = (   0.2508975   0.5311378   0.0000000), wk =   0.0416667
        k(   53) = (   0.2508975   0.5311378   0.0934918), wk =   0.0833333
        k(   54) = (   0.2508975   0.5311378  -0.1869837), wk =   0.0416667
        k(   55) = (   0.3345300   0.5794230   0.0000000), wk =   0.0069444
        k(   56) = (   0.3345300   0.5794230   0.0934918), wk =   0.0138889
        k(   57) = (   0.3345300   0.5794230  -0.1869837), wk =   0.0069444

     Dense  grid:    22517 G-vectors     FFT dimensions: (  27,  27,  72)

     Smooth grid:     7995 G-vectors     FFT dimensions: (  20,  20,  54)

     Estimated max dynamical RAM per process >      11.45 MB

     Estimated total dynamical RAM >      45.82 MB

     Check: negative core charge=   -0.000012

     Initial potential from superposition of free atoms

     starting charge      15.9998, renormalised to      16.0000
     Starting wfcs are   16 randomized atomic wfcs
     Checking if some PAW data can be deallocated... 

     total cpu time spent up to now is       60.1 secs

     Self-consistent Calculation

     iteration #  1     ecut=    40.00 Ry     beta= 0.70
     Davidson diagonalization with overlap
     c_bands:  1 eigenvalues not converged
     c_bands:  1 eigenvalues not converged
     c_bands:  1 eigenvalues not converged
     c_bands:  1 eigenvalues not converged
     c_bands:  1 eigenvalues not converged
     c_bands:  1 eigenvalues not converged
     c_bands:  2 eigenvalues not converged
     c_bands:  2 eigenvalues not converged
     c_bands:  1 eigenvalues not converged
     c_bands:  2 eigenvalues not converged
     c_bands:  2 eigenvalues not converged
     c_bands:  2 eigenvalues not converged
     c_bands:  1 eigenvalues not converged
     c_bands:  1 eigenvalues not converged
     c_bands:  1 eigenvalues not converged
     c_bands:  2 eigenvalues not converged
     c_bands:  1 eigenvalues not converged
     ethr =  1.00E-06,  avg # of iterations = 14.5

     total cpu time spent up to now is       61.9 secs

     total energy              =     -72.43201622 Ry
     estimated scf accuracy    <       0.39138391 Ry

     iteration #  2     ecut=    40.00 Ry     beta= 0.70
     Davidson diagonalization with overlap
     ethr =  2.45E-03,  avg # of iterations =  2.2

     total cpu time spent up to now is       62.3 secs

     total energy              =     -72.49210465 Ry
     estimated scf accuracy    <       0.00405961 Ry

     iteration #  3     ecut=    40.00 Ry     beta= 0.70
     Davidson diagonalization with overlap
     ethr =  2.54E-05,  avg # of iterations =  4.2

     total cpu time spent up to now is       62.7 secs

     total energy              =     -72.49251779 Ry
     estimated scf accuracy    <       0.00032099 Ry

     iteration #  4     ecut=    40.00 Ry     beta= 0.70
     Davidson diagonalization with overlap
     c_bands:  1 eigenvalues not converged
     ethr =  2.01E-06,  avg # of iterations =  3.4

     total cpu time spent up to now is       63.1 secs

     total energy              =     -72.49255659 Ry
     estimated scf accuracy    <       0.00000529 Ry

     iteration #  5     ecut=    40.00 Ry     beta= 0.70
     Davidson diagonalization with overlap
     c_bands:  1 eigenvalues not converged
     ethr =  3.31E-08,  avg # of iterations =  3.4

     total cpu time spent up to now is       63.5 secs

     total energy              =     -72.49255928 Ry
     estimated scf accuracy    <       0.00000028 Ry

     iteration #  6     ecut=    40.00 Ry     beta= 0.70
     Davidson diagonalization with overlap
     ethr =  1.78E-09,  avg # of iterations =  2.3

     total cpu time spent up to now is       63.9 secs

     total energy              =     -72.49255938 Ry
     estimated scf accuracy    <       0.00000003 Ry

     iteration #  7     ecut=    40.00 Ry     beta= 0.70
     Davidson diagonalization with overlap
     ethr =  1.75E-10,  avg # of iterations =  2.0

     total cpu time spent up to now is       64.2 secs

     total energy              =     -72.49255938 Ry
     estimated scf accuracy    <          3.3E-09 Ry

     iteration #  8     ecut=    40.00 Ry     beta= 0.70
     Davidson diagonalization with overlap
     ethr =  2.07E-11,  avg # of iterations =  2.0

     total cpu time spent up to now is       64.5 secs

     End of self-consistent calculation

          k = 0.0000 0.0000 0.0000 (   997 PWs)   bands (ev):

   -12.5300 -12.1791  -1.5354   0.6576   4.1967   4.1967   4.2173   4.2173
    11.3371  15.5415  15.5416  15.6013

          k = 0.0000 0.0000 0.0935 (  1003 PWs)   bands (ev):

   -12.4819 -12.2340  -1.2634   0.2680   4.1992   4.1992   4.2138   4.2138
    12.1341  15.5496  15.5496  15.5918

          k = 0.0000 0.0000-0.1870 (  1022 PWs)   bands (ev):

   -12.3613 -12.3613  -0.5529  -0.5529   4.2057   4.2057   4.2057   4.2057
    14.1373  14.1374  15.5702  15.5702

          k = 0.0000 0.0966 0.0000 (  1008 PWs)   bands (ev):

   -12.3633 -12.0159  -1.3318   0.8471   3.5328   3.5724   3.8450   3.8787
    11.5368  15.5873  15.6836  16.2457

          k = 0.0000 0.0966 0.0935 (  1000 PWs)   bands (ev):

   -12.3155 -12.0701  -1.0612   0.4604   3.5390   3.5670   3.8498   3.8734
    12.3272  15.5891  15.6713  16.2544

          k = 0.0000 0.0966-0.1870 (   998 PWs)   bands (ev):

   -12.1961 -12.1961  -0.3551  -0.3551   3.5529   3.5529   3.8612   3.8612
    14.3070  14.3070  15.6499  15.6499

          k = 0.0000 0.1931 0.0000 (  1006 PWs)   bands (ev):

   -11.8647 -11.5278  -0.7252   1.4090   1.8678   1.9442   3.0321   3.0796
    12.1379  15.4836  15.6909  16.4134

          k = 0.0000 0.1931 0.0935 (   997 PWs)   bands (ev):

   -11.8183 -11.5803  -0.4596   1.0315   1.8790   1.9331   3.0391   3.0727
    12.9061  15.4883  15.6576  16.4837

          k = 0.0000 0.1931-0.1870 (  1000 PWs)   bands (ev):

   -11.7024 -11.7024   0.2330   0.2330   1.9059   1.9059   3.0560   3.0560
    14.7892  14.7892  15.6426  15.6426

          k = 0.0000 0.2897 0.0000 (   994 PWs)   bands (ev):

   -11.0402 -10.7203  -0.2644  -0.1466   0.2698   2.1353   2.1914   2.3186
    13.1349  14.1396  14.8683  15.1547

          k = 0.0000 0.2897 0.0935 (   996 PWs)   bands (ev):

   -10.9960 -10.7701  -0.2477  -0.1644   0.5262   1.9591   2.1435   2.1834
    13.7847  14.3097  14.7209  15.1993

          k = 0.0000 0.2897-0.1870 (   994 PWs)   bands (ev):

   -10.8858 -10.8858  -0.2066  -0.2066   1.1939   1.1939   2.1631   2.1631
    14.4039  14.4039  15.2146  15.2146

          k = 0.0000 0.3863 0.0000 (   992 PWs)   bands (ev):

    -9.9016  -9.6050  -2.5033  -2.3453   1.3901   1.4512   1.6148   3.5060
    11.6534  12.6792  14.4562  14.8198

          k = 0.0000 0.3863 0.0935 (   996 PWs)   bands (ev):

    -9.8605  -9.6509  -2.4809  -2.3692   1.3986   1.4423   1.8550   3.1809
    11.7625  12.4937  14.7976  14.9769

          k = 0.0000 0.3863-0.1870 (   994 PWs)   bands (ev):

    -9.7581  -9.7581  -2.4255  -2.4255   1.4203   1.4203   2.4773   2.4773
    12.0944  12.0944  14.9517  14.9517

          k = 0.0000 0.4829 0.0000 (  1010 PWs)   bands (ev):

    -8.4765  -8.2112  -4.6398  -4.4473   0.9091   0.9741   3.1934   4.7170
     9.4807  10.6018  14.5098  14.9445

          k = 0.0000 0.4829 0.0935 (   999 PWs)   bands (ev):

    -8.4394  -8.2519  -4.6128  -4.4765   0.9188   0.9646   3.4013   4.4791
     9.5765  10.3763  14.5735  14.8815

          k = 0.0000 0.4829-0.1870 (   994 PWs)   bands (ev):

    -8.3474  -8.3474  -4.5456  -4.5456   0.9418   0.9418   3.9245   3.9245
     9.9161   9.9161  14.7267  14.7267

          k = 0.0000-0.5794 0.0000 (  1000 PWs)   bands (ev):

    -7.1133  -6.9826  -6.1331  -6.0345   0.7442   0.8105   4.3281   5.0899
     8.6559   9.4047  14.4202  14.8807

          k = 0.0000-0.5794 0.0935 (  1002 PWs)   bands (ev):

    -7.0906  -6.9971  -6.1262  -6.0555   0.7539   0.8010   4.4738   5.0284
     8.6344   9.1797  14.4844  14.8108

          k = 0.0000-0.5794-0.1870 (   992 PWs)   bands (ev):

    -7.0396  -7.0396  -6.0978  -6.0978   0.7770   0.7770   4.7925   4.7925
     8.7883   8.7883  14.6440  14.6440

          k = 0.0836 0.1449 0.0000 (  1003 PWs)   bands (ev):

   -12.0306 -11.6902  -0.9266   1.2231   2.4966   2.5345   3.1582   3.1856
    11.9386  15.8575  15.9894  17.1519

          k = 0.0836 0.1449 0.0935 (  1001 PWs)   bands (ev):

   -11.9837 -11.7433  -0.6593   0.8424   2.5024   2.5294   3.1614   3.1810
    12.7156  15.8445  15.9709  16.9846

          k = 0.0836 0.1449-0.1870 (   998 PWs)   bands (ev):

   -11.8667 -11.8667   0.0380   0.0380   2.5161   2.5161   3.1707   3.1707
    14.6501  14.6501  15.9510  15.9510

          k = 0.0836 0.2414 0.0000 (  1005 PWs)   bands (ev):

   -11.3691 -11.0425  -0.1252   0.7566   0.8383   1.9605   2.1311   2.1842
    12.7430  15.0978  15.6134  15.9487

          k = 0.0836 0.2414 0.0935 (   999 PWs)   bands (ev):

   -11.3240 -11.0933   0.1350   0.7684   0.8266   1.5934   2.1387   2.1762
    13.4859  15.1608  15.5054  15.9810

          k = 0.0836 0.2414-0.1870 (  1000 PWs)   bands (ev):

   -11.2116 -11.2116   0.7866   0.7866   0.8245   0.8245   2.1570   2.1570
    15.1773  15.1773  15.4488  15.4488

          k = 0.0836 0.3380 0.0000 (  1000 PWs)   bands (ev):

   -10.3875 -10.0810  -1.3557  -1.2252   1.0493   1.2258   1.2962   3.0192
    12.7854  13.5789  13.9365  15.6620

          k = 0.0836 0.3380 0.0935 (   994 PWs)   bands (ev):

   -10.3450 -10.1285  -1.3369  -1.2445   1.2358   1.2855   1.2978   2.6768
    12.8713  13.4439  14.6476  15.7089

          k = 0.0836 0.3380-0.1870 (   992 PWs)   bands (ev):

   -10.2393 -10.2393  -1.2910  -1.2910   1.2607   1.2607   1.9420   1.9420
    13.1396  13.1396  15.7442  15.7442

          k = 0.0836 0.4346 0.0000 (  1003 PWs)   bands (ev):

    -9.1035  -8.8236  -3.5169  -3.3444   0.5806   0.6588   2.5337   4.2774
    10.4454  11.4815  15.2809  15.5057

          k = 0.0836 0.4346 0.0935 (  1000 PWs)   bands (ev):

    -9.0645  -8.8668  -3.4922  -3.3705   0.5919   0.6472   2.7600   3.9856
    10.5577  11.2959  15.3857  15.6457

          k = 0.0836 0.4346-0.1870 (   990 PWs)   bands (ev):

    -8.9677  -8.9677  -3.4321  -3.4321   0.6195   0.6195   3.3411   3.3411
    10.8933  10.8933  15.5369  15.5369

          k = 0.0836 0.5311 0.0000 (   995 PWs)   bands (ev):

    -7.5798  -7.3452  -5.4939  -5.3014   0.2475   0.3290   4.0855   5.2058
     8.8207   9.6931  15.1528  15.6307

          k = 0.0836 0.5311 0.0935 (   997 PWs)   bands (ev):

    -7.5466  -7.3806  -5.4674  -5.3313   0.2592   0.3168   4.2609   5.0653
     8.8508   9.4848  15.2180  15.5562

          k = 0.0836 0.5311-0.1870 (   990 PWs)   bands (ev):

    -7.4647  -7.4647  -5.4010  -5.4010   0.2879   0.2879   4.6784   4.6784
     9.0839   9.0839  15.3815  15.3815

          k = 0.1673 0.2897 0.0000 (   999 PWs)   bands (ev):

   -10.5505 -10.2407  -0.5633  -0.4988   0.7472   0.7945   0.8585   2.8536
    13.3405  13.7489  13.8883  17.0984

          k = 0.1673 0.2897 0.0935 (   991 PWs)   bands (ev):

   -10.5076 -10.2888  -0.5532  -0.5077   0.7532   0.7866   1.1093   2.5054
    13.4181  13.7975  14.4569  17.0994

          k = 0.1673 0.2897-0.1870 (   998 PWs)   bands (ev):

   -10.4008 -10.4008  -0.5302  -0.5302   0.7685   0.7685   1.7609   1.7609
    13.6071  13.6071  16.1480  16.1480

          k = 0.1673 0.3863 0.0000 (  1000 PWs)   bands (ev):

    -9.4227  -9.1361  -2.3335  -2.2090  -0.3392  -0.2525   2.1893   4.0264
    11.2918  12.0039  15.1301  17.2403

          k = 0.1673 0.3863 0.0935 (  1001 PWs)   bands (ev):

    -9.3828  -9.1803  -2.3153  -2.2274  -0.3278  -0.2662   2.4238   3.7121
    11.3891  11.8942  15.7376  17.2789

          k = 0.1673 0.3863-0.1870 (   984 PWs)   bands (ev):

    -9.2837  -9.2837  -2.2712  -2.2712  -0.2976  -0.2976   3.0298   3.0298
    11.6376  11.6376  17.0354  17.0354

          k = 0.1673 0.4829 0.0000 (   991 PWs)   bands (ev):

    -8.0172  -7.7622  -4.2917  -4.1166  -0.9269  -0.8188   3.7621   5.2629
     9.3263  10.1704  16.8033  17.0345

          k = 0.1673 0.4829 0.0935 (   992 PWs)   bands (ev):

    -7.9815  -7.8012  -4.2671  -4.1431  -0.9117  -0.8353   3.9660   5.0267
     9.4158  10.0213  17.0406  17.1661

          k = 0.1673 0.4829-0.1870 (   998 PWs)   bands (ev):

    -7.8931  -7.8931  -4.2061  -4.2061  -0.8741  -0.8741   4.4796   4.4796
     9.6911   9.6911  17.1866  17.1866

          k = 0.1673 0.5794 0.0000 (   982 PWs)   bands (ev):

    -6.6889  -6.5632  -5.7155  -5.6275  -1.1143  -1.0015   4.9318   5.6776
     8.6109   8.9462  16.8954  17.5200

          k = 0.1673 0.5794 0.0935 (   989 PWs)   bands (ev):

    -6.6672  -6.5774  -5.7096  -5.6464  -1.0982  -1.0185   5.0773   5.6223
     8.5546   8.8178  16.9553  17.3836

          k = 0.1673 0.5794-0.1870 (   982 PWs)   bands (ev):

    -6.6184  -6.6184  -5.6843  -5.6843  -1.0586  -1.0586   5.3948   5.3948
     8.5959   8.5959  17.1212  17.1212

          k = 0.2509 0.4346 0.0000 (  1001 PWs)   bands (ev):

    -8.1699  -7.9104  -3.3420  -3.2526  -1.8441  -1.7772   3.6362   5.2555
     9.6719  10.3539  16.6516  18.9909

          k = 0.2509 0.4346 0.0935 (   994 PWs)   bands (ev):

    -8.1336  -7.9502  -3.3280  -3.2647  -1.8364  -1.7891   3.8484   4.9878
     9.7732  10.2527  16.9744  18.2945

          k = 0.2509 0.4346-0.1870 (   988 PWs)   bands (ev):

    -8.0437  -8.0437  -3.2954  -3.2954  -1.8149  -1.8149   4.3911   4.3911
    10.0143  10.0143  17.5770  17.5770

          k = 0.2509 0.5311 0.0000 (   979 PWs)   bands (ev):

    -6.7050  -6.4906  -4.8143  -4.6660  -2.5805  -2.4639   5.2118   6.3393
     8.2317   8.8436  18.3519  18.9079

          k = 0.2509 0.5311 0.0935 (   985 PWs)   bands (ev):

    -6.6745  -6.5229  -4.7934  -4.6885  -2.5651  -2.4824   5.3844   6.1948
     8.2869   8.7211  17.6725  17.9403

          k = 0.2509 0.5311-0.1870 (   992 PWs)   bands (ev):

    -6.5995  -6.5995  -4.7417  -4.7417  -2.5253  -2.5253   5.8010   5.8010
     8.4740   8.4740  17.4620  17.4620

          k = 0.3345 0.5794 0.0000 (   975 PWs)   bands (ev):

    -5.4739  -5.3599  -5.3599  -5.2504  -3.4619  -3.4619   6.4576   7.1410
     7.1410   7.9781  18.1631  18.1632

          k = 0.3345 0.5794 0.0935 (   990 PWs)   bands (ev):

    -5.4426  -5.3583  -5.3583  -5.2846  -3.4657  -3.4657   6.6542   7.1625
     7.1625   7.7232  17.5058  17.5058

          k = 0.3345 0.5794-0.1870 (   984 PWs)   bands (ev):

    -5.3648  -5.3648  -5.3565  -5.3565  -3.4690  -3.4690   7.1606   7.1606
     7.1846   7.1846  17.1119  17.1119

     the Fermi energy is     7.1625 ev

!    total energy              =     -72.49255938 Ry
     total all-electron energy =      -303.608671 Ry
     estimated scf accuracy    <          1.6E-10 Ry
     smearing contrib. (-TS)   =      -0.00039438 Ry
     internal energy E=F+TS    =     -72.49216500 Ry

     The total energy is F=E-TS. E is the sum of the following terms:
     one-electron contribution =      -8.86493567 Ry
     hartree contribution      =      12.91059327 Ry
     xc contribution           =     -18.35746005 Ry
     ewald contribution        =     -34.58794706 Ry
     DFT-D3 Dispersion         =      -0.03013629 Ry
     one-center paw contrib.   =     -23.56227919 Ry

     convergence has been achieved in   8 iterations

     Forces acting on atoms (cartesian axes, Ry/au):

     atom    1 type  1   force =     0.00000000    0.00000000    0.00000000
     atom    2 type  1   force =    -0.00000000   -0.00000000    0.00000000
     atom    3 type  1   force =     0.00000000    0.00000000    0.00000000
     atom    4 type  1   force =    -0.00000000   -0.00000000    0.00000000

     Total force =     0.000000     Total SCF correction =     0.000000


     Computing stress (Cartesian axis) and pressure

          total   stress  (Ry/bohr**3)                   (kbar)     P=       -4.58
  -0.00002231   0.00000000   0.00000000           -3.28        0.00        0.00
   0.00000000  -0.00002231   0.00000000            0.00       -3.28        0.00
  -0.00000000  -0.00000000  -0.00004872           -0.00       -0.00       -7.17


     Writing all to output data dir ./temp/graphite.save/ :
     XML data file, charge density, pseudopotentials, collected wavefunctions

     init_run     :      0.72s CPU      0.75s WALL (       2 calls)
     electrons    :     37.63s CPU     40.30s WALL (      14 calls)
     update_pot   :      0.42s CPU      0.42s WALL (      12 calls)
     forces       :     10.92s CPU     10.94s WALL (      14 calls)
     force_dftd3  :      9.97s CPU      9.98s WALL (      14 calls)
     stress       :     13.32s CPU     13.35s WALL (      14 calls)
     stres_dftd3  :     10.00s CPU     10.01s WALL (      14 calls)

     Called by init_run:
     wfcinit      :      0.26s CPU      0.29s WALL (       2 calls)
     potinit      :      0.19s CPU      0.19s WALL (       2 calls)
     hinit0       :      0.22s CPU      0.22s WALL (       2 calls)

     Called by electrons:
     c_bands      :     24.09s CPU     26.30s WALL (      80 calls)
     sum_band     :      3.87s CPU      4.32s WALL (      80 calls)
     v_of_rho     :      0.58s CPU      0.58s WALL (      90 calls)
     newd         :      0.53s CPU      0.54s WALL (      90 calls)
     PAW_pot      :      2.18s CPU      2.19s WALL (     102 calls)
     mix_rho      :      0.04s CPU      0.04s WALL (      80 calls)
     energy_dftd3 :      7.00s CPU      7.00s WALL (      14 calls)

     Called by c_bands:
     init_us_2    :      0.50s CPU      0.54s WALL (   11514 calls)
     cegterg      :     23.31s CPU     25.46s WALL (    4560 calls)

     Called by *egterg:
     cdiaghg      :      1.74s CPU      1.90s WALL (   15436 calls)
     h_psi        :     14.58s CPU     15.95s WALL (   16462 calls)
     s_psi        :      1.48s CPU      1.62s WALL (   16462 calls)
     g_psi        :      0.08s CPU      0.09s WALL (   11788 calls)

     Called by h_psi:
     h_psi:calbec :      1.89s CPU      2.08s WALL (   16462 calls)
     vloc_psi     :     11.09s CPU     12.12s WALL (   16462 calls)
     add_vuspsi   :      1.48s CPU      1.62s WALL (   16462 calls)

     General routines
     calbec       :      3.69s CPU      3.99s WALL (   25696 calls)
     fft          :      0.52s CPU      0.52s WALL (    1508 calls)
     ffts         :      0.13s CPU      0.13s WALL (     170 calls)
     fftw         :     11.13s CPU     12.22s WALL (  350654 calls)
     interpolate  :      0.16s CPU      0.16s WALL (      90 calls)

     Parallel routines

     PWSCF        :   1m 3.72s CPU   1m 6.50s WALL


   This run was terminated on:  22:31:47  25Dec2024            

=------------------------------------------------------------------------------=
   JOB DONE.
=------------------------------------------------------------------------------=
