 INFO
nunit      1    1    1
unit   cell
celltype   primcell
shape   parapipedal
 END_INFO
 DIM-GROUP
           3           1
 PRIMVEC
    8.0105786990    0.0000000000    0.0000000000
    0.0000000000    8.0105786990    0.0000000000
    0.0000000000    0.0000000000    8.0105786990
 CONVVEC
    8.0105786990    0.0000000000    0.0000000000
    0.0000000000    8.0105786990    0.0000000000
    0.0000000000    0.0000000000    8.0105786990
 PRIMCOORD
          31           1
 13      0.0000000000     0.0000000000     4.0052899570     0.0000000000     0.0000000000     0.0000000000
 13      0.0000000000     4.0052899570     0.0000000000     0.0000000000     0.0000000000     0.0000000000
 13      0.0000000000     4.0052899570     4.0052899570     0.0000000000     0.0000000000     0.0000000000
 13      4.0052899570     0.0000000000     0.0000000000     0.0000000000     0.0000000000     0.0000000000
 13      4.0052899570     0.0000000000     4.0052899570     0.0000000000     0.0000000000     0.0000000000
 13      4.0052899570     4.0052899570     0.0000000000     0.0000000000     0.0000000000     0.0000000000
 13      4.0052899570     4.0052899570     4.0052899570     0.0000000000     0.0000000000     0.0000000000
 13      0.0000000000     1.9691567650     1.9691567650     0.0000000000    -0.0000051500    -0.0000051500
 13      0.0000000000     1.9691567650     6.0414231480    -0.0000000000    -0.0000051500     0.0000051500
 13      0.0000000000     6.0414231480     1.9691567650    -0.0000000000     0.0000051500    -0.0000051500
 13      0.0000000000     6.0414231480     6.0414231480    -0.0000000000     0.0000051500     0.0000051500
 13      4.0052899570     1.9984436370     1.9984436370    -0.0000000000     0.0000052100     0.0000052100
 13      4.0052899570     1.9984436370     6.0121362760     0.0000000000     0.0000052100    -0.0000052100
 13      4.0052899570     6.0121362760     1.9984436370    -0.0000000000    -0.0000052100     0.0000052100
 13      4.0052899570     6.0121362760     6.0121362760     0.0000000000    -0.0000052100    -0.0000052100
 13      1.9691567650     0.0000000000     1.9691567650    -0.0000051500     0.0000000000    -0.0000051500
 13      1.9691567650     0.0000000000     6.0414231480    -0.0000051500     0.0000000000     0.0000051500
 13      1.9984436370     4.0052899570     1.9984436370     0.0000052100    -0.0000000000     0.0000052100
 13      1.9984436370     4.0052899570     6.0121362760     0.0000052100     0.0000000000    -0.0000052100
 13      6.0414231480     0.0000000000     1.9691567650     0.0000051500    -0.0000000000    -0.0000051500
 13      6.0414231480     0.0000000000     6.0414231480     0.0000051500    -0.0000000000     0.0000051500
 13      6.0121362760     4.0052899570     1.9984436370    -0.0000052100     0.0000000000     0.0000052100
 13      6.0121362760     4.0052899570     6.0121362760    -0.0000052100    -0.0000000000    -0.0000052100
 13      1.9691567650     1.9691567650     0.0000000000    -0.0000051500    -0.0000051500    -0.0000000000
 13      1.9984436370     1.9984436370     4.0052899570     0.0000052100     0.0000052100    -0.0000000000
 13      1.9691567650     6.0414231480     0.0000000000    -0.0000051500     0.0000051500    -0.0000000000
 13      1.9984436370     6.0121362760     4.0052899570     0.0000052100    -0.0000052100     0.0000000000
 13      6.0414231480     1.9691567650     0.0000000000     0.0000051500    -0.0000051500     0.0000000000
 13      6.0121362760     1.9984436370     4.0052899570    -0.0000052100     0.0000052100    -0.0000000000
 13      6.0414231480     6.0414231480     0.0000000000     0.0000051500     0.0000051500    -0.0000000000
 13      6.0121362760     6.0121362760     4.0052899570    -0.0000052100    -0.0000052100     0.0000000000
 CONVCOORD
          31           1
 13      0.0000000000     0.0000000000     4.0052899570
 13      0.0000000000     4.0052899570     0.0000000000
 13      0.0000000000     4.0052899570     4.0052899570
 13      4.0052899570     0.0000000000     0.0000000000
 13      4.0052899570     0.0000000000     4.0052899570
 13      4.0052899570     4.0052899570     0.0000000000
 13      4.0052899570     4.0052899570     4.0052899570
 13      0.0000000000     1.9691567650     1.9691567650
 13      0.0000000000     1.9691567650     6.0414231480
 13      0.0000000000     6.0414231480     1.9691567650
 13      0.0000000000     6.0414231480     6.0414231480
 13      4.0052899570     1.9984436370     1.9984436370
 13      4.0052899570     1.9984436370     6.0121362760
 13      4.0052899570     6.0121362760     1.9984436370
 13      4.0052899570     6.0121362760     6.0121362760
 13      1.9691567650     0.0000000000     1.9691567650
 13      1.9691567650     0.0000000000     6.0414231480
 13      1.9984436370     4.0052899570     1.9984436370
 13      1.9984436370     4.0052899570     6.0121362760
 13      6.0414231480     0.0000000000     1.9691567650
 13      6.0414231480     0.0000000000     6.0414231480
 13      6.0121362760     4.0052899570     1.9984436370
 13      6.0121362760     4.0052899570     6.0121362760
 13      1.9691567650     1.9691567650     0.0000000000
 13      1.9984436370     1.9984436370     4.0052899570
 13      1.9691567650     6.0414231480     0.0000000000
 13      1.9984436370     6.0121362760     4.0052899570
 13      6.0414231480     1.9691567650     0.0000000000
 13      6.0121362760     1.9984436370     4.0052899570
 13      6.0414231480     6.0414231480     0.0000000000
 13      6.0121362760     6.0121362760     4.0052899570
 RECIP-PRIMVEC
    0.1248349261    0.0000000000    0.0000000000

    0.0000000000    0.1248349261    0.0000000000

    0.0000000000    0.0000000000    0.1248349261

 RECIP-CONVVEC
    0.1248349261    0.0000000000    0.0000000000

    0.0000000000    0.1248349261    0.0000000000

    0.0000000000    0.0000000000    0.1248349261

 WIGNER-SEITZ-PRIMCELL
           4
 -0.4005289E+01 -0.4005289E+01  0.4005289E+01  -0.1000000E+01  0.1108757E-15 -0.1108757E-15
 -0.4005289E+01  0.4005289E+01  0.4005289E+01  -0.1000000E+01  0.1108757E-15 -0.1108757E-15
 -0.4005289E+01  0.4005289E+01 -0.4005289E+01  -0.1000000E+01  0.1108757E-15 -0.1108757E-15
 -0.4005289E+01 -0.4005289E+01 -0.4005289E+01  -0.1000000E+01  0.1108757E-15 -0.1108757E-15
           4
 -0.4005289E+01 -0.4005289E+01  0.4005289E+01  -0.0000000E+00 -0.1000000E+01 -0.1107293E-15
 -0.4005289E+01 -0.4005289E+01 -0.4005289E+01  -0.0000000E+00 -0.1000000E+01 -0.1107293E-15
  0.4005289E+01 -0.4005289E+01 -0.4005289E+01  -0.0000000E+00 -0.1000000E+01 -0.1107293E-15
  0.4005289E+01 -0.4005289E+01  0.4005289E+01  -0.0000000E+00 -0.1000000E+01 -0.1107293E-15
           4
 -0.4005289E+01  0.4005289E+01 -0.4005289E+01  -0.1107293E-15  0.5529142E-16 -0.1000000E+01
  0.4005289E+01  0.4005289E+01 -0.4005289E+01  -0.1107293E-15  0.5529142E-16 -0.1000000E+01
  0.4005289E+01 -0.4005289E+01 -0.4005289E+01  -0.1107293E-15  0.5529142E-16 -0.1000000E+01
 -0.4005289E+01 -0.4005289E+01 -0.4005289E+01  -0.1107293E-15  0.5529142E-16 -0.1000000E+01
           4
 -0.4005289E+01 -0.4005289E+01  0.4005289E+01  -0.1107293E-15  0.5514500E-16  0.1000000E+01
  0.4005289E+01 -0.4005289E+01  0.4005289E+01  -0.1107293E-15  0.5514500E-16  0.1000000E+01
  0.4005289E+01  0.4005289E+01  0.4005289E+01  -0.1107293E-15  0.5514500E-16  0.1000000E+01
 -0.4005289E+01  0.4005289E+01  0.4005289E+01  -0.1107293E-15  0.5514500E-16  0.1000000E+01
           4
  0.4005289E+01  0.4005289E+01  0.4005289E+01   0.0000000E+00  0.1000000E+01 -0.1107293E-15
  0.4005289E+01  0.4005289E+01 -0.4005289E+01   0.0000000E+00  0.1000000E+01 -0.1107293E-15
 -0.4005289E+01  0.4005289E+01 -0.4005289E+01   0.0000000E+00  0.1000000E+01 -0.1107293E-15
 -0.4005289E+01  0.4005289E+01  0.4005289E+01   0.0000000E+00  0.1000000E+01 -0.1107293E-15
           4
  0.4005289E+01 -0.4005289E+01 -0.4005289E+01   0.1000000E+01  0.1108757E-15 -0.1108757E-15
  0.4005289E+01  0.4005289E+01 -0.4005289E+01   0.1000000E+01  0.1108757E-15 -0.1108757E-15
  0.4005289E+01  0.4005289E+01  0.4005289E+01   0.1000000E+01  0.1108757E-15 -0.1108757E-15
  0.4005289E+01 -0.4005289E+01  0.4005289E+01   0.1000000E+01  0.1108757E-15 -0.1108757E-15
 WIGNER-SEITZ-PRIMCELL_END
 WIGNER-SEITZ-CONVCELL
           4
 -0.4005289E+01 -0.4005289E+01  0.4005289E+01  -0.1000000E+01  0.1108757E-15 -0.1108757E-15
 -0.4005289E+01  0.4005289E+01  0.4005289E+01  -0.1000000E+01  0.1108757E-15 -0.1108757E-15
 -0.4005289E+01  0.4005289E+01 -0.4005289E+01  -0.1000000E+01  0.1108757E-15 -0.1108757E-15
 -0.4005289E+01 -0.4005289E+01 -0.4005289E+01  -0.1000000E+01  0.1108757E-15 -0.1108757E-15
           4
 -0.4005289E+01 -0.4005289E+01  0.4005289E+01  -0.0000000E+00 -0.1000000E+01 -0.1107293E-15
 -0.4005289E+01 -0.4005289E+01 -0.4005289E+01  -0.0000000E+00 -0.1000000E+01 -0.1107293E-15
  0.4005289E+01 -0.4005289E+01 -0.4005289E+01  -0.0000000E+00 -0.1000000E+01 -0.1107293E-15
  0.4005289E+01 -0.4005289E+01  0.4005289E+01  -0.0000000E+00 -0.1000000E+01 -0.1107293E-15
           4
 -0.4005289E+01  0.4005289E+01 -0.4005289E+01  -0.1107293E-15  0.5529142E-16 -0.1000000E+01
  0.4005289E+01  0.4005289E+01 -0.4005289E+01  -0.1107293E-15  0.5529142E-16 -0.1000000E+01
  0.4005289E+01 -0.4005289E+01 -0.4005289E+01  -0.1107293E-15  0.5529142E-16 -0.1000000E+01
 -0.4005289E+01 -0.4005289E+01 -0.4005289E+01  -0.1107293E-15  0.5529142E-16 -0.1000000E+01
           4
 -0.4005289E+01 -0.4005289E+01  0.4005289E+01  -0.1107293E-15  0.5514500E-16  0.1000000E+01
  0.4005289E+01 -0.4005289E+01  0.4005289E+01  -0.1107293E-15  0.5514500E-16  0.1000000E+01
  0.4005289E+01  0.4005289E+01  0.4005289E+01  -0.1107293E-15  0.5514500E-16  0.1000000E+01
 -0.4005289E+01  0.4005289E+01  0.4005289E+01  -0.1107293E-15  0.5514500E-16  0.1000000E+01
           4
  0.4005289E+01  0.4005289E+01  0.4005289E+01   0.0000000E+00  0.1000000E+01 -0.1107293E-15
  0.4005289E+01  0.4005289E+01 -0.4005289E+01   0.0000000E+00  0.1000000E+01 -0.1107293E-15
 -0.4005289E+01  0.4005289E+01 -0.4005289E+01   0.0000000E+00  0.1000000E+01 -0.1107293E-15
 -0.4005289E+01  0.4005289E+01  0.4005289E+01   0.0000000E+00  0.1000000E+01 -0.1107293E-15
           4
  0.4005289E+01 -0.4005289E+01 -0.4005289E+01   0.1000000E+01  0.1108757E-15 -0.1108757E-15
  0.4005289E+01  0.4005289E+01 -0.4005289E+01   0.1000000E+01  0.1108757E-15 -0.1108757E-15
  0.4005289E+01  0.4005289E+01  0.4005289E+01   0.1000000E+01  0.1108757E-15 -0.1108757E-15
  0.4005289E+01 -0.4005289E+01  0.4005289E+01   0.1000000E+01  0.1108757E-15 -0.1108757E-15
 WIGNER-SEITZ-CONVCELL_END
 BRILLOUIN-ZONE-PRIMCELL
           4
 -0.6241746E-01 -0.6241746E-01  0.6241746E-01  -0.1000000E+01 -0.5558456E-16  0.5558456E-16
 -0.6241746E-01  0.6241746E-01  0.6241746E-01  -0.1000000E+01 -0.5558456E-16  0.5558456E-16
 -0.6241746E-01  0.6241746E-01 -0.6241746E-01  -0.1000000E+01 -0.5558456E-16  0.5558456E-16
 -0.6241746E-01 -0.6241746E-01 -0.6241746E-01  -0.1000000E+01 -0.5558456E-16  0.5558456E-16
           4
 -0.6241746E-01 -0.6241746E-01 -0.6241746E-01  -0.0000000E+00 -0.1000000E+01 -0.2779228E-16
  0.6241746E-01 -0.6241746E-01 -0.6241746E-01  -0.0000000E+00 -0.1000000E+01 -0.2779228E-16
  0.6241746E-01 -0.6241746E-01  0.6241746E-01  -0.0000000E+00 -0.1000000E+01 -0.2779228E-16
 -0.6241746E-01 -0.6241746E-01  0.6241746E-01  -0.0000000E+00 -0.1000000E+01 -0.2779228E-16
           4
 -0.6241746E-01  0.6241746E-01 -0.6241746E-01   0.5565806E-16 -0.2786578E-16 -0.1000000E+01
  0.6241746E-01  0.6241746E-01 -0.6241746E-01   0.5565806E-16 -0.2786578E-16 -0.1000000E+01
  0.6241746E-01 -0.6241746E-01 -0.6241746E-01   0.5565806E-16 -0.2786578E-16 -0.1000000E+01
 -0.6241746E-01 -0.6241746E-01 -0.6241746E-01   0.5565806E-16 -0.2786578E-16 -0.1000000E+01
           4
 -0.6241746E-01 -0.6241746E-01  0.6241746E-01   0.5565806E-16 -0.2793928E-16  0.1000000E+01
  0.6241746E-01 -0.6241746E-01  0.6241746E-01   0.5565806E-16 -0.2793928E-16  0.1000000E+01
  0.6241746E-01  0.6241746E-01  0.6241746E-01   0.5565806E-16 -0.2793928E-16  0.1000000E+01
 -0.6241746E-01  0.6241746E-01  0.6241746E-01   0.5565806E-16 -0.2793928E-16  0.1000000E+01
           4
 -0.6241746E-01  0.6241746E-01  0.6241746E-01   0.0000000E+00  0.1000000E+01  0.2793928E-16
  0.6241746E-01  0.6241746E-01  0.6241746E-01   0.0000000E+00  0.1000000E+01  0.2793928E-16
  0.6241746E-01  0.6241746E-01 -0.6241746E-01   0.0000000E+00  0.1000000E+01  0.2793928E-16
 -0.6241746E-01  0.6241746E-01 -0.6241746E-01   0.0000000E+00  0.1000000E+01  0.2793928E-16
           4
  0.6241746E-01 -0.6241746E-01 -0.6241746E-01   0.1000000E+01 -0.5558456E-16  0.5558456E-16
  0.6241746E-01  0.6241746E-01 -0.6241746E-01   0.1000000E+01 -0.5558456E-16  0.5558456E-16
  0.6241746E-01  0.6241746E-01  0.6241746E-01   0.1000000E+01 -0.5558456E-16  0.5558456E-16
  0.6241746E-01 -0.6241746E-01  0.6241746E-01   0.1000000E+01 -0.5558456E-16  0.5558456E-16
 BRILLOUIN-ZONE-PRIMCELL_END
 BRILLOUIN-ZONE-CONVCELL
           4
 -0.6241746E-01 -0.6241746E-01  0.6241746E-01  -0.1000000E+01 -0.5558456E-16  0.5558456E-16
 -0.6241746E-01  0.6241746E-01  0.6241746E-01  -0.1000000E+01 -0.5558456E-16  0.5558456E-16
 -0.6241746E-01  0.6241746E-01 -0.6241746E-01  -0.1000000E+01 -0.5558456E-16  0.5558456E-16
 -0.6241746E-01 -0.6241746E-01 -0.6241746E-01  -0.1000000E+01 -0.5558456E-16  0.5558456E-16
           4
 -0.6241746E-01 -0.6241746E-01 -0.6241746E-01  -0.0000000E+00 -0.1000000E+01 -0.2779228E-16
  0.6241746E-01 -0.6241746E-01 -0.6241746E-01  -0.0000000E+00 -0.1000000E+01 -0.2779228E-16
  0.6241746E-01 -0.6241746E-01  0.6241746E-01  -0.0000000E+00 -0.1000000E+01 -0.2779228E-16
 -0.6241746E-01 -0.6241746E-01  0.6241746E-01  -0.0000000E+00 -0.1000000E+01 -0.2779228E-16
           4
 -0.6241746E-01  0.6241746E-01 -0.6241746E-01   0.5565806E-16 -0.2786578E-16 -0.1000000E+01
  0.6241746E-01  0.6241746E-01 -0.6241746E-01   0.5565806E-16 -0.2786578E-16 -0.1000000E+01
  0.6241746E-01 -0.6241746E-01 -0.6241746E-01   0.5565806E-16 -0.2786578E-16 -0.1000000E+01
 -0.6241746E-01 -0.6241746E-01 -0.6241746E-01   0.5565806E-16 -0.2786578E-16 -0.1000000E+01
           4
 -0.6241746E-01 -0.6241746E-01  0.6241746E-01   0.5565806E-16 -0.2793928E-16  0.1000000E+01
  0.6241746E-01 -0.6241746E-01  0.6241746E-01   0.5565806E-16 -0.2793928E-16  0.1000000E+01
  0.6241746E-01  0.6241746E-01  0.6241746E-01   0.5565806E-16 -0.2793928E-16  0.1000000E+01
 -0.6241746E-01  0.6241746E-01  0.6241746E-01   0.5565806E-16 -0.2793928E-16  0.1000000E+01
           4
 -0.6241746E-01  0.6241746E-01  0.6241746E-01   0.0000000E+00  0.1000000E+01  0.2793928E-16
  0.6241746E-01  0.6241746E-01  0.6241746E-01   0.0000000E+00  0.1000000E+01  0.2793928E-16
  0.6241746E-01  0.6241746E-01 -0.6241746E-01   0.0000000E+00  0.1000000E+01  0.2793928E-16
 -0.6241746E-01  0.6241746E-01 -0.6241746E-01   0.0000000E+00  0.1000000E+01  0.2793928E-16
           4
  0.6241746E-01 -0.6241746E-01 -0.6241746E-01   0.1000000E+01 -0.5558456E-16  0.5558456E-16
  0.6241746E-01  0.6241746E-01 -0.6241746E-01   0.1000000E+01 -0.5558456E-16  0.5558456E-16
  0.6241746E-01  0.6241746E-01  0.6241746E-01   0.1000000E+01 -0.5558456E-16  0.5558456E-16
  0.6241746E-01 -0.6241746E-01  0.6241746E-01   0.1000000E+01 -0.5558456E-16  0.5558456E-16
 BRILLOUIN-ZONE-CONVCELL_END
 ATOMS
   13    0.0000000000    0.0000000000    4.0052899570    0.0000000000    0.0000000000    0.0000000000
   13    0.0000000000    4.0052899570    0.0000000000    0.0000000000    0.0000000000    0.0000000000
   13    0.0000000000    4.0052899570    4.0052899570    0.0000000000    0.0000000000    0.0000000000
   13    4.0052899570    0.0000000000    0.0000000000    0.0000000000    0.0000000000    0.0000000000
   13    4.0052899570    0.0000000000    4.0052899570    0.0000000000    0.0000000000    0.0000000000
   13    4.0052899570    4.0052899570    0.0000000000    0.0000000000    0.0000000000    0.0000000000
   13    4.0052899570    4.0052899570    4.0052899570    0.0000000000    0.0000000000    0.0000000000
   13    0.0000000000    1.9691567650    1.9691567650    0.0000000000   -0.0000051500   -0.0000051500
   13    0.0000000000    1.9691567650    6.0414231480   -0.0000000000   -0.0000051500    0.0000051500
   13    0.0000000000    6.0414231480    1.9691567650   -0.0000000000    0.0000051500   -0.0000051500
   13    0.0000000000    6.0414231480    6.0414231480   -0.0000000000    0.0000051500    0.0000051500
   13    4.0052899570    1.9984436370    1.9984436370   -0.0000000000    0.0000052100    0.0000052100
   13    4.0052899570    1.9984436370    6.0121362760    0.0000000000    0.0000052100   -0.0000052100
   13    4.0052899570    6.0121362760    1.9984436370   -0.0000000000   -0.0000052100    0.0000052100
   13    4.0052899570    6.0121362760    6.0121362760    0.0000000000   -0.0000052100   -0.0000052100
   13    1.9691567650    0.0000000000    1.9691567650   -0.0000051500    0.0000000000   -0.0000051500
   13    1.9691567650    0.0000000000    6.0414231480   -0.0000051500    0.0000000000    0.0000051500
   13    1.9984436370    4.0052899570    1.9984436370    0.0000052100   -0.0000000000    0.0000052100
   13    1.9984436370    4.0052899570    6.0121362760    0.0000052100    0.0000000000   -0.0000052100
   13    6.0414231480    0.0000000000    1.9691567650    0.0000051500   -0.0000000000   -0.0000051500
   13    6.0414231480    0.0000000000    6.0414231480    0.0000051500   -0.0000000000    0.0000051500
   13    6.0121362760    4.0052899570    1.9984436370   -0.0000052100    0.0000000000    0.0000052100
   13    6.0121362760    4.0052899570    6.0121362760   -0.0000052100   -0.0000000000   -0.0000052100
   13    1.9691567650    1.9691567650    0.0000000000   -0.0000051500   -0.0000051500   -0.0000000000
   13    1.9984436370    1.9984436370    4.0052899570    0.0000052100    0.0000052100   -0.0000000000
   13    1.9691567650    6.0414231480    0.0000000000   -0.0000051500    0.0000051500   -0.0000000000
   13    1.9984436370    6.0121362760    4.0052899570    0.0000052100   -0.0000052100    0.0000000000
   13    6.0414231480    1.9691567650    0.0000000000    0.0000051500   -0.0000051500    0.0000000000
   13    6.0121362760    1.9984436370    4.0052899570   -0.0000052100    0.0000052100   -0.0000000000
   13    6.0414231480    6.0414231480    0.0000000000    0.0000051500    0.0000051500   -0.0000000000
   13    6.0121362760    6.0121362760    4.0052899570   -0.0000052100   -0.0000052100    0.0000000000
   13    0.0000000000    4.0052899570    8.0105786990    0.0000000000    0.0000000000    0.0000000000
   13    4.0052899570    0.0000000000    8.0105786990    0.0000000000    0.0000000000    0.0000000000
   13    4.0052899570    4.0052899570    8.0105786990    0.0000000000    0.0000000000    0.0000000000
   13    1.9691567650    1.9691567650    8.0105786990   -0.0000051500   -0.0000051500   -0.0000000000
   13    1.9691567650    6.0414231480    8.0105786990   -0.0000051500    0.0000051500   -0.0000000000
   13    6.0414231480    1.9691567650    8.0105786990    0.0000051500   -0.0000051500    0.0000000000
   13    6.0414231480    6.0414231480    8.0105786990    0.0000051500    0.0000051500   -0.0000000000
   13    0.0000000000    8.0105786990    4.0052899570    0.0000000000    0.0000000000    0.0000000000
   13    4.0052899570    8.0105786990    0.0000000000    0.0000000000    0.0000000000    0.0000000000
   13    4.0052899570    8.0105786990    4.0052899570    0.0000000000    0.0000000000    0.0000000000
   13    1.9691567650    8.0105786990    1.9691567650   -0.0000051500    0.0000000000   -0.0000051500
   13    1.9691567650    8.0105786990    6.0414231480   -0.0000051500    0.0000000000    0.0000051500
   13    6.0414231480    8.0105786990    1.9691567650    0.0000051500   -0.0000000000   -0.0000051500
   13    6.0414231480    8.0105786990    6.0414231480    0.0000051500   -0.0000000000    0.0000051500
   13    4.0052899570    8.0105786990    8.0105786990    0.0000000000    0.0000000000    0.0000000000
   13    8.0105786990    0.0000000000    4.0052899570    0.0000000000    0.0000000000    0.0000000000
   13    8.0105786990    4.0052899570    0.0000000000    0.0000000000    0.0000000000    0.0000000000
   13    8.0105786990    4.0052899570    4.0052899570    0.0000000000    0.0000000000    0.0000000000
   13    8.0105786990    1.9691567650    1.9691567650    0.0000000000   -0.0000051500   -0.0000051500
   13    8.0105786990    1.9691567650    6.0414231480   -0.0000000000   -0.0000051500    0.0000051500
   13    8.0105786990    6.0414231480    1.9691567650   -0.0000000000    0.0000051500   -0.0000051500
   13    8.0105786990    6.0414231480    6.0414231480   -0.0000000000    0.0000051500    0.0000051500
   13    8.0105786990    4.0052899570    8.0105786990    0.0000000000    0.0000000000    0.0000000000
   13    8.0105786990    8.0105786990    4.0052899570    0.0000000000    0.0000000000    0.0000000000
 FRAMES
1      0.0000000000    0.0000000000    0.0000000000      8.0105786990    0.0000000000    0.0000000000
1      0.0000000000    0.0000000000    0.0000000000      0.0000000000    8.0105786990    0.0000000000
1      0.0000000000    0.0000000000    0.0000000000      0.0000000000    0.0000000000    8.0105786990
1      0.0000000000    0.0000000000    8.0105786990      8.0105786990    0.0000000000    8.0105786990
1      0.0000000000    0.0000000000    8.0105786990      0.0000000000    8.0105786990    8.0105786990
1      0.0000000000    8.0105786990    0.0000000000      8.0105786990    8.0105786990    0.0000000000
1      0.0000000000    8.0105786990    0.0000000000      0.0000000000    8.0105786990    8.0105786990
1      0.0000000000    8.0105786990    8.0105786990      8.0105786990    8.0105786990    8.0105786990
1      8.0105786990    0.0000000000    0.0000000000      8.0105786990    8.0105786990    0.0000000000
1      8.0105786990    0.0000000000    0.0000000000      8.0105786990    0.0000000000    8.0105786990
1      8.0105786990    0.0000000000    8.0105786990      8.0105786990    8.0105786990    8.0105786990
1      8.0105786990    8.0105786990    0.0000000000      8.0105786990    8.0105786990    8.0105786990
