
     Program PWSCF v.7.3.1 starts on 19Dec2025 at 14:58:46 

     This program is part of the open-source Quantum ESPRESSO suite
     for quantum simulation of materials; please cite
         "P. Giannozzi et al., J. Phys.:Condens. Matter 21 395502 (2009);
         "P. Giannozzi et al., J. Phys.:Condens. Matter 29 465901 (2017);
         "P. Giannozzi et al., J. Chem. Phys. 152 154105 (2020);
          URL http://www.quantum-espresso.org", 
     in publications or presentations arising from this work. More details at
     http://www.quantum-espresso.org/quote

     Parallel version (MPI), running on    10 processors

     MPI processes distributed on     1 nodes
     23729 MiB available memory on the printing compute node when the environment starts

     Reading input from al-2x2x2.vc-relax.pw.in

     Current dimensions of program PWSCF are:
     Max number of different atomic species (ntypx) = 10
     Max number of k-points (npk) = 120000
     Max angular momentum in pseudopotentials (lmaxx) =  4
     file Al.pbesol-n-kjpaw_psl.1.0.0.UPF: wavefunction(s)  3S 3P renormalized

     K-points division:     npool     =      10
     Subspace diagonalization in iterative solution of the eigenvalue problem:
     a serial algorithm will be used


     G-vector sticks info
     --------------------
     sticks:   dense  smooth     PW     G-vecs:    dense   smooth      PW
     Sum        5877    2941    793               338275   119825   17071

     Using Slab Decomposition



     bravais-lattice index     =            1
     lattice parameter (alat)  =      15.1823  a.u.
     unit-cell volume          =    3499.5429 (a.u.)^3
     number of atoms/cell      =           31
     number of atomic types    =            1
     number of electrons       =        93.00
     number of Kohn-Sham states=           56
     kinetic-energy cutoff     =      40.0000  Ry
     charge density cutoff     =     320.0000  Ry
     scf convergence threshold =      1.0E-08
     mixing beta               =       0.7000
     number of iterations used =            8  plain     mixing
     energy convergence thresh.=      1.0E-05
     force convergence thresh. =      1.0E-04
     press convergence thresh. =      5.0E-02
     Exchange-correlation= SLA  PW   PSX  PSC
                           (   1   4  10   8   0   0   0)
     nstep                     =           50


     celldm(1)=  15.182284  celldm(2)=   0.000000  celldm(3)=   0.000000
     celldm(4)=   0.000000  celldm(5)=   0.000000  celldm(6)=   0.000000

     crystal axes: (cart. coord. in units of alat)
               a(1) = (   1.000000   0.000000   0.000000 )  
               a(2) = (   0.000000   1.000000   0.000000 )  
               a(3) = (   0.000000   0.000000   1.000000 )  

     reciprocal axes: (cart. coord. in units 2 pi/alat)
               b(1) = (  1.000000  0.000000  0.000000 )  
               b(2) = (  0.000000  1.000000  0.000000 )  
               b(3) = (  0.000000  0.000000  1.000000 )  


     PseudoPot. # 1 for Al read from file:
     ./../Al.pbesol-n-kjpaw_psl.1.0.0.UPF
     MD5 check sum: fed048700f41f568201cacb08e201ac8
     Pseudo is Projector augmented-wave + core cor, Zval =  3.0
     Generated using &quot;atomic&quot; code by A. Dal Corso  v.6.3
     Shape of augmentation charge: PSQ
     Using radial grid of 1135 points,  6 beta functions with: 
                l(1) =   0
                l(2) =   0
                l(3) =   1
                l(4) =   1
                l(5) =   2
                l(6) =   2
     Q(r) pseudized with 0 coefficients 


     atomic species   valence    mass     pseudopotential
     Al                3.00    27.00000     Al( 1.00)

     48 Sym. Ops., with inversion, found


                                    s                        frac. trans.

      isym =  1     identity                                     

 cryst.   s( 1) = (     1          0          0      )
                  (     0          1          0      )
                  (     0          0          1      )

 cart.    s( 1) = (  1.0000000  0.0000000  0.0000000 )
                  (  0.0000000  1.0000000  0.0000000 )
                  (  0.0000000  0.0000000  1.0000000 )


      isym =  2     180 deg rotation - cart. axis [0,0,1]        

 cryst.   s( 2) = (    -1          0          0      )
                  (     0         -1          0      )
                  (     0          0          1      )

 cart.    s( 2) = ( -1.0000000  0.0000000  0.0000000 )
                  (  0.0000000 -1.0000000  0.0000000 )
                  (  0.0000000  0.0000000  1.0000000 )


      isym =  3     180 deg rotation - cart. axis [0,1,0]        

 cryst.   s( 3) = (    -1          0          0      )
                  (     0          1          0      )
                  (     0          0         -1      )

 cart.    s( 3) = ( -1.0000000  0.0000000  0.0000000 )
                  (  0.0000000  1.0000000  0.0000000 )
                  (  0.0000000  0.0000000 -1.0000000 )


      isym =  4     180 deg rotation - cart. axis [1,0,0]        

 cryst.   s( 4) = (     1          0          0      )
                  (     0         -1          0      )
                  (     0          0         -1      )

 cart.    s( 4) = (  1.0000000  0.0000000  0.0000000 )
                  (  0.0000000 -1.0000000  0.0000000 )
                  (  0.0000000  0.0000000 -1.0000000 )


      isym =  5     180 deg rotation - cart. axis [1,1,0]        

 cryst.   s( 5) = (     0          1          0      )
                  (     1          0          0      )
                  (     0          0         -1      )

 cart.    s( 5) = (  0.0000000  1.0000000  0.0000000 )
                  (  1.0000000  0.0000000  0.0000000 )
                  (  0.0000000  0.0000000 -1.0000000 )


      isym =  6     180 deg rotation - cart. axis [1,-1,0]       

 cryst.   s( 6) = (     0         -1          0      )
                  (    -1          0          0      )
                  (     0          0         -1      )

 cart.    s( 6) = (  0.0000000 -1.0000000  0.0000000 )
                  ( -1.0000000  0.0000000  0.0000000 )
                  (  0.0000000  0.0000000 -1.0000000 )


      isym =  7      90 deg rotation - cart. axis [0,0,-1]       

 cryst.   s( 7) = (     0         -1          0      )
                  (     1          0          0      )
                  (     0          0          1      )

 cart.    s( 7) = (  0.0000000  1.0000000  0.0000000 )
                  ( -1.0000000  0.0000000  0.0000000 )
                  (  0.0000000  0.0000000  1.0000000 )


      isym =  8      90 deg rotation - cart. axis [0,0,1]        

 cryst.   s( 8) = (     0          1          0      )
                  (    -1          0          0      )
                  (     0          0          1      )

 cart.    s( 8) = (  0.0000000 -1.0000000  0.0000000 )
                  (  1.0000000  0.0000000  0.0000000 )
                  (  0.0000000  0.0000000  1.0000000 )


      isym =  9     180 deg rotation - cart. axis [1,0,1]        

 cryst.   s( 9) = (     0          0          1      )
                  (     0         -1          0      )
                  (     1          0          0      )

 cart.    s( 9) = (  0.0000000  0.0000000  1.0000000 )
                  (  0.0000000 -1.0000000  0.0000000 )
                  (  1.0000000  0.0000000  0.0000000 )


      isym = 10     180 deg rotation - cart. axis [-1,0,1]       

 cryst.   s(10) = (     0          0         -1      )
                  (     0         -1          0      )
                  (    -1          0          0      )

 cart.    s(10) = (  0.0000000  0.0000000 -1.0000000 )
                  (  0.0000000 -1.0000000  0.0000000 )
                  ( -1.0000000  0.0000000  0.0000000 )


      isym = 11      90 deg rotation - cart. axis [0,1,0]        

 cryst.   s(11) = (     0          0         -1      )
                  (     0          1          0      )
                  (     1          0          0      )

 cart.    s(11) = (  0.0000000  0.0000000  1.0000000 )
                  (  0.0000000  1.0000000  0.0000000 )
                  ( -1.0000000  0.0000000  0.0000000 )


      isym = 12      90 deg rotation - cart. axis [0,-1,0]       

 cryst.   s(12) = (     0          0          1      )
                  (     0          1          0      )
                  (    -1          0          0      )

 cart.    s(12) = (  0.0000000  0.0000000 -1.0000000 )
                  (  0.0000000  1.0000000  0.0000000 )
                  (  1.0000000  0.0000000  0.0000000 )


      isym = 13     180 deg rotation - cart. axis [0,1,1]        

 cryst.   s(13) = (    -1          0          0      )
                  (     0          0          1      )
                  (     0          1          0      )

 cart.    s(13) = ( -1.0000000  0.0000000  0.0000000 )
                  (  0.0000000  0.0000000  1.0000000 )
                  (  0.0000000  1.0000000  0.0000000 )


      isym = 14     180 deg rotation - cart. axis [0,1,-1]       

 cryst.   s(14) = (    -1          0          0      )
                  (     0          0         -1      )
                  (     0         -1          0      )

 cart.    s(14) = ( -1.0000000  0.0000000  0.0000000 )
                  (  0.0000000  0.0000000 -1.0000000 )
                  (  0.0000000 -1.0000000  0.0000000 )


      isym = 15      90 deg rotation - cart. axis [-1,0,0]       

 cryst.   s(15) = (     1          0          0      )
                  (     0          0         -1      )
                  (     0          1          0      )

 cart.    s(15) = (  1.0000000  0.0000000  0.0000000 )
                  (  0.0000000  0.0000000  1.0000000 )
                  (  0.0000000 -1.0000000  0.0000000 )


      isym = 16      90 deg rotation - cart. axis [1,0,0]        

 cryst.   s(16) = (     1          0          0      )
                  (     0          0          1      )
                  (     0         -1          0      )

 cart.    s(16) = (  1.0000000  0.0000000  0.0000000 )
                  (  0.0000000  0.0000000 -1.0000000 )
                  (  0.0000000  1.0000000  0.0000000 )


      isym = 17     120 deg rotation - cart. axis [-1,-1,-1]     

 cryst.   s(17) = (     0          0          1      )
                  (     1          0          0      )
                  (     0          1          0      )

 cart.    s(17) = (  0.0000000  1.0000000  0.0000000 )
                  (  0.0000000  0.0000000  1.0000000 )
                  (  1.0000000  0.0000000  0.0000000 )


      isym = 18     120 deg rotation - cart. axis [-1,1,1]       

 cryst.   s(18) = (     0          0         -1      )
                  (    -1          0          0      )
                  (     0          1          0      )

 cart.    s(18) = (  0.0000000 -1.0000000  0.0000000 )
                  (  0.0000000  0.0000000  1.0000000 )
                  ( -1.0000000  0.0000000  0.0000000 )


      isym = 19     120 deg rotation - cart. axis [1,1,-1]       

 cryst.   s(19) = (     0          0         -1      )
                  (     1          0          0      )
                  (     0         -1          0      )

 cart.    s(19) = (  0.0000000  1.0000000  0.0000000 )
                  (  0.0000000  0.0000000 -1.0000000 )
                  ( -1.0000000  0.0000000  0.0000000 )


      isym = 20     120 deg rotation - cart. axis [1,-1,1]       

 cryst.   s(20) = (     0          0          1      )
                  (    -1          0          0      )
                  (     0         -1          0      )

 cart.    s(20) = (  0.0000000 -1.0000000  0.0000000 )
                  (  0.0000000  0.0000000 -1.0000000 )
                  (  1.0000000  0.0000000  0.0000000 )


      isym = 21     120 deg rotation - cart. axis [1,1,1]        

 cryst.   s(21) = (     0          1          0      )
                  (     0          0          1      )
                  (     1          0          0      )

 cart.    s(21) = (  0.0000000  0.0000000  1.0000000 )
                  (  1.0000000  0.0000000  0.0000000 )
                  (  0.0000000  1.0000000  0.0000000 )


      isym = 22     120 deg rotation - cart. axis [-1,1,-1]      

 cryst.   s(22) = (     0         -1          0      )
                  (     0          0         -1      )
                  (     1          0          0      )

 cart.    s(22) = (  0.0000000  0.0000000  1.0000000 )
                  ( -1.0000000  0.0000000  0.0000000 )
                  (  0.0000000 -1.0000000  0.0000000 )


      isym = 23     120 deg rotation - cart. axis [1,-1,-1]      

 cryst.   s(23) = (     0         -1          0      )
                  (     0          0          1      )
                  (    -1          0          0      )

 cart.    s(23) = (  0.0000000  0.0000000 -1.0000000 )
                  ( -1.0000000  0.0000000  0.0000000 )
                  (  0.0000000  1.0000000  0.0000000 )


      isym = 24     120 deg rotation - cart. axis [-1,-1,1]      

 cryst.   s(24) = (     0          1          0      )
                  (     0          0         -1      )
                  (    -1          0          0      )

 cart.    s(24) = (  0.0000000  0.0000000 -1.0000000 )
                  (  1.0000000  0.0000000  0.0000000 )
                  (  0.0000000 -1.0000000  0.0000000 )


      isym = 25     inversion                                    

 cryst.   s(25) = (    -1          0          0      )
                  (     0         -1          0      )
                  (     0          0         -1      )

 cart.    s(25) = ( -1.0000000  0.0000000  0.0000000 )
                  (  0.0000000 -1.0000000  0.0000000 )
                  (  0.0000000  0.0000000 -1.0000000 )


      isym = 26     inv. 180 deg rotation - cart. axis [0,0,1]   

 cryst.   s(26) = (     1          0          0      )
                  (     0          1          0      )
                  (     0          0         -1      )

 cart.    s(26) = (  1.0000000  0.0000000  0.0000000 )
                  (  0.0000000  1.0000000  0.0000000 )
                  (  0.0000000  0.0000000 -1.0000000 )


      isym = 27     inv. 180 deg rotation - cart. axis [0,1,0]   

 cryst.   s(27) = (     1          0          0      )
                  (     0         -1          0      )
                  (     0          0          1      )

 cart.    s(27) = (  1.0000000  0.0000000  0.0000000 )
                  (  0.0000000 -1.0000000  0.0000000 )
                  (  0.0000000  0.0000000  1.0000000 )


      isym = 28     inv. 180 deg rotation - cart. axis [1,0,0]   

 cryst.   s(28) = (    -1          0          0      )
                  (     0          1          0      )
                  (     0          0          1      )

 cart.    s(28) = ( -1.0000000  0.0000000  0.0000000 )
                  (  0.0000000  1.0000000  0.0000000 )
                  (  0.0000000  0.0000000  1.0000000 )


      isym = 29     inv. 180 deg rotation - cart. axis [1,1,0]   

 cryst.   s(29) = (     0         -1          0      )
                  (    -1          0          0      )
                  (     0          0          1      )

 cart.    s(29) = (  0.0000000 -1.0000000  0.0000000 )
                  ( -1.0000000  0.0000000  0.0000000 )
                  (  0.0000000  0.0000000  1.0000000 )


      isym = 30     inv. 180 deg rotation - cart. axis [1,-1,0]  

 cryst.   s(30) = (     0          1          0      )
                  (     1          0          0      )
                  (     0          0          1      )

 cart.    s(30) = (  0.0000000  1.0000000  0.0000000 )
                  (  1.0000000  0.0000000  0.0000000 )
                  (  0.0000000  0.0000000  1.0000000 )


      isym = 31     inv.  90 deg rotation - cart. axis [0,0,-1]  

 cryst.   s(31) = (     0          1          0      )
                  (    -1          0          0      )
                  (     0          0         -1      )

 cart.    s(31) = (  0.0000000 -1.0000000  0.0000000 )
                  (  1.0000000  0.0000000  0.0000000 )
                  (  0.0000000  0.0000000 -1.0000000 )


      isym = 32     inv.  90 deg rotation - cart. axis [0,0,1]   

 cryst.   s(32) = (     0         -1          0      )
                  (     1          0          0      )
                  (     0          0         -1      )

 cart.    s(32) = (  0.0000000  1.0000000  0.0000000 )
                  ( -1.0000000  0.0000000  0.0000000 )
                  (  0.0000000  0.0000000 -1.0000000 )


      isym = 33     inv. 180 deg rotation - cart. axis [1,0,1]   

 cryst.   s(33) = (     0          0         -1      )
                  (     0          1          0      )
                  (    -1          0          0      )

 cart.    s(33) = (  0.0000000  0.0000000 -1.0000000 )
                  (  0.0000000  1.0000000  0.0000000 )
                  ( -1.0000000  0.0000000  0.0000000 )


      isym = 34     inv. 180 deg rotation - cart. axis [-1,0,1]  

 cryst.   s(34) = (     0          0          1      )
                  (     0          1          0      )
                  (     1          0          0      )

 cart.    s(34) = (  0.0000000  0.0000000  1.0000000 )
                  (  0.0000000  1.0000000  0.0000000 )
                  (  1.0000000  0.0000000  0.0000000 )


      isym = 35     inv.  90 deg rotation - cart. axis [0,1,0]   

 cryst.   s(35) = (     0          0          1      )
                  (     0         -1          0      )
                  (    -1          0          0      )

 cart.    s(35) = (  0.0000000  0.0000000 -1.0000000 )
                  (  0.0000000 -1.0000000  0.0000000 )
                  (  1.0000000  0.0000000  0.0000000 )


      isym = 36     inv.  90 deg rotation - cart. axis [0,-1,0]  

 cryst.   s(36) = (     0          0         -1      )
                  (     0         -1          0      )
                  (     1          0          0      )

 cart.    s(36) = (  0.0000000  0.0000000  1.0000000 )
                  (  0.0000000 -1.0000000  0.0000000 )
                  ( -1.0000000  0.0000000  0.0000000 )


      isym = 37     inv. 180 deg rotation - cart. axis [0,1,1]   

 cryst.   s(37) = (     1          0          0      )
                  (     0          0         -1      )
                  (     0         -1          0      )

 cart.    s(37) = (  1.0000000  0.0000000  0.0000000 )
                  (  0.0000000  0.0000000 -1.0000000 )
                  (  0.0000000 -1.0000000  0.0000000 )


      isym = 38     inv. 180 deg rotation - cart. axis [0,1,-1]  

 cryst.   s(38) = (     1          0          0      )
                  (     0          0          1      )
                  (     0          1          0      )

 cart.    s(38) = (  1.0000000  0.0000000  0.0000000 )
                  (  0.0000000  0.0000000  1.0000000 )
                  (  0.0000000  1.0000000  0.0000000 )


      isym = 39     inv.  90 deg rotation - cart. axis [-1,0,0]  

 cryst.   s(39) = (    -1          0          0      )
                  (     0          0          1      )
                  (     0         -1          0      )

 cart.    s(39) = ( -1.0000000  0.0000000  0.0000000 )
                  (  0.0000000  0.0000000 -1.0000000 )
                  (  0.0000000  1.0000000  0.0000000 )


      isym = 40     inv.  90 deg rotation - cart. axis [1,0,0]   

 cryst.   s(40) = (    -1          0          0      )
                  (     0          0         -1      )
                  (     0          1          0      )

 cart.    s(40) = ( -1.0000000  0.0000000  0.0000000 )
                  (  0.0000000  0.0000000  1.0000000 )
                  (  0.0000000 -1.0000000  0.0000000 )


      isym = 41     inv. 120 deg rotation - cart. axis [-1,-1,-1]

 cryst.   s(41) = (     0          0         -1      )
                  (    -1          0          0      )
                  (     0         -1          0      )

 cart.    s(41) = (  0.0000000 -1.0000000  0.0000000 )
                  (  0.0000000  0.0000000 -1.0000000 )
                  ( -1.0000000  0.0000000  0.0000000 )


      isym = 42     inv. 120 deg rotation - cart. axis [-1,1,1]  

 cryst.   s(42) = (     0          0          1      )
                  (     1          0          0      )
                  (     0         -1          0      )

 cart.    s(42) = (  0.0000000  1.0000000  0.0000000 )
                  (  0.0000000  0.0000000 -1.0000000 )
                  (  1.0000000  0.0000000  0.0000000 )


      isym = 43     inv. 120 deg rotation - cart. axis [1,1,-1]  

 cryst.   s(43) = (     0          0          1      )
                  (    -1          0          0      )
                  (     0          1          0      )

 cart.    s(43) = (  0.0000000 -1.0000000  0.0000000 )
                  (  0.0000000  0.0000000  1.0000000 )
                  (  1.0000000  0.0000000  0.0000000 )


      isym = 44     inv. 120 deg rotation - cart. axis [1,-1,1]  

 cryst.   s(44) = (     0          0         -1      )
                  (     1          0          0      )
                  (     0          1          0      )

 cart.    s(44) = (  0.0000000  1.0000000  0.0000000 )
                  (  0.0000000  0.0000000  1.0000000 )
                  ( -1.0000000  0.0000000  0.0000000 )


      isym = 45     inv. 120 deg rotation - cart. axis [1,1,1]   

 cryst.   s(45) = (     0         -1          0      )
                  (     0          0         -1      )
                  (    -1          0          0      )

 cart.    s(45) = (  0.0000000  0.0000000 -1.0000000 )
                  ( -1.0000000  0.0000000  0.0000000 )
                  (  0.0000000 -1.0000000  0.0000000 )


      isym = 46     inv. 120 deg rotation - cart. axis [-1,1,-1] 

 cryst.   s(46) = (     0          1          0      )
                  (     0          0          1      )
                  (    -1          0          0      )

 cart.    s(46) = (  0.0000000  0.0000000 -1.0000000 )
                  (  1.0000000  0.0000000  0.0000000 )
                  (  0.0000000  1.0000000  0.0000000 )


      isym = 47     inv. 120 deg rotation - cart. axis [1,-1,-1] 

 cryst.   s(47) = (     0          1          0      )
                  (     0          0         -1      )
                  (     1          0          0      )

 cart.    s(47) = (  0.0000000  0.0000000  1.0000000 )
                  (  1.0000000  0.0000000  0.0000000 )
                  (  0.0000000 -1.0000000  0.0000000 )


      isym = 48     inv. 120 deg rotation - cart. axis [-1,-1,1] 

 cryst.   s(48) = (     0         -1          0      )
                  (     0          0          1      )
                  (     1          0          0      )

 cart.    s(48) = (  0.0000000  0.0000000  1.0000000 )
                  ( -1.0000000  0.0000000  0.0000000 )
                  (  0.0000000  1.0000000  0.0000000 )


     point group O_h (m-3m) 
     there are 10 classes
     the character table:

       E     8C3   3C2   6C4   6C2'  i     8S6   3s_h  6S4   6s_d 
A_1g   1.00  1.00  1.00  1.00  1.00  1.00  1.00  1.00  1.00  1.00
A_2g   1.00  1.00  1.00 -1.00 -1.00  1.00  1.00  1.00 -1.00 -1.00
E_g    2.00 -1.00  2.00  0.00  0.00  2.00 -1.00  2.00  0.00  0.00
T_1g   3.00  0.00 -1.00  1.00 -1.00  3.00  0.00 -1.00  1.00 -1.00
T_2g   3.00  0.00 -1.00 -1.00  1.00  3.00  0.00 -1.00 -1.00  1.00
A_1u   1.00  1.00  1.00  1.00  1.00 -1.00 -1.00 -1.00 -1.00 -1.00
A_2u   1.00  1.00  1.00 -1.00 -1.00 -1.00 -1.00 -1.00  1.00  1.00
E_u    2.00 -1.00  2.00  0.00  0.00 -2.00  1.00 -2.00  0.00  0.00
T_1u   3.00  0.00 -1.00  1.00 -1.00 -3.00  0.00  1.00 -1.00  1.00
T_2u   3.00  0.00 -1.00 -1.00  1.00 -3.00  0.00  1.00  1.00 -1.00

     the symmetry operations in each class and the name of the first element:

     E        1
          identity                                               
     8C3     17   19   20   18   24   21   22   23
          120 deg rotation - cart. axis [-1,-1,-1]               
     3C2      2    4    3
          180 deg rotation - cart. axis [0,0,1]                  
     6C4      7    8   15   16   12   11
           90 deg rotation - cart. axis [0,0,-1]                 
     6C2'     5    6   14   13   10    9
          180 deg rotation - cart. axis [1,1,0]                  
     i       25
          inversion                                              
     8S6     41   43   44   42   48   45   46   47
          inv. 120 deg rotation - cart. axis [-1,-1,-1]          
     3s_h    26   28   27
          inv. 180 deg rotation - cart. axis [0,0,1]             
     6S4     31   32   39   40   36   35
          inv.  90 deg rotation - cart. axis [0,0,-1]            
     6s_d    29   30   38   37   34   33
          inv. 180 deg rotation - cart. axis [1,1,0]             

   Cartesian axes

     site n.     atom                  positions (alat units)
         1        Al     tau(   1) = (   0.0000000   0.0000000   0.5000000  )
         2        Al     tau(   2) = (   0.0000000   0.5000000   0.0000000  )
         3        Al     tau(   3) = (   0.0000000   0.5000000   0.5000000  )
         4        Al     tau(   4) = (   0.5000000   0.0000000   0.0000000  )
         5        Al     tau(   5) = (   0.5000000   0.0000000   0.5000000  )
         6        Al     tau(   6) = (   0.5000000   0.5000000   0.0000000  )
         7        Al     tau(   7) = (   0.5000000   0.5000000   0.5000000  )
         8        Al     tau(   8) = (   0.0000000   0.2500000   0.2500000  )
         9        Al     tau(   9) = (   0.0000000   0.2500000   0.7500000  )
        10        Al     tau(  10) = (   0.0000000   0.7500000   0.2500000  )
        11        Al     tau(  11) = (   0.0000000   0.7500000   0.7500000  )
        12        Al     tau(  12) = (   0.5000000   0.2500000   0.2500000  )
        13        Al     tau(  13) = (   0.5000000   0.2500000   0.7500000  )
        14        Al     tau(  14) = (   0.5000000   0.7500000   0.2500000  )
        15        Al     tau(  15) = (   0.5000000   0.7500000   0.7500000  )
        16        Al     tau(  16) = (   0.2500000   0.0000000   0.2500000  )
        17        Al     tau(  17) = (   0.2500000   0.0000000   0.7500000  )
        18        Al     tau(  18) = (   0.2500000   0.5000000   0.2500000  )
        19        Al     tau(  19) = (   0.2500000   0.5000000   0.7500000  )
        20        Al     tau(  20) = (   0.7500000   0.0000000   0.2500000  )
        21        Al     tau(  21) = (   0.7500000   0.0000000   0.7500000  )
        22        Al     tau(  22) = (   0.7500000   0.5000000   0.2500000  )
        23        Al     tau(  23) = (   0.7500000   0.5000000   0.7500000  )
        24        Al     tau(  24) = (   0.2500000   0.2500000   0.0000000  )
        25        Al     tau(  25) = (   0.2500000   0.2500000   0.5000000  )
        26        Al     tau(  26) = (   0.2500000   0.7500000   0.0000000  )
        27        Al     tau(  27) = (   0.2500000   0.7500000   0.5000000  )
        28        Al     tau(  28) = (   0.7500000   0.2500000   0.0000000  )
        29        Al     tau(  29) = (   0.7500000   0.2500000   0.5000000  )
        30        Al     tau(  30) = (   0.7500000   0.7500000   0.0000000  )
        31        Al     tau(  31) = (   0.7500000   0.7500000   0.5000000  )

   Crystallographic axes

     site n.     atom                  positions (cryst. coord.)
         1        Al     tau(   1) = (  0.0000000  0.0000000  0.5000000  )
         2        Al     tau(   2) = (  0.0000000  0.5000000  0.0000000  )
         3        Al     tau(   3) = (  0.0000000  0.5000000  0.5000000  )
         4        Al     tau(   4) = (  0.5000000  0.0000000  0.0000000  )
         5        Al     tau(   5) = (  0.5000000  0.0000000  0.5000000  )
         6        Al     tau(   6) = (  0.5000000  0.5000000  0.0000000  )
         7        Al     tau(   7) = (  0.5000000  0.5000000  0.5000000  )
         8        Al     tau(   8) = (  0.0000000  0.2500000  0.2500000  )
         9        Al     tau(   9) = (  0.0000000  0.2500000  0.7500000  )
        10        Al     tau(  10) = (  0.0000000  0.7500000  0.2500000  )
        11        Al     tau(  11) = (  0.0000000  0.7500000  0.7500000  )
        12        Al     tau(  12) = (  0.5000000  0.2500000  0.2500000  )
        13        Al     tau(  13) = (  0.5000000  0.2500000  0.7500000  )
        14        Al     tau(  14) = (  0.5000000  0.7500000  0.2500000  )
        15        Al     tau(  15) = (  0.5000000  0.7500000  0.7500000  )
        16        Al     tau(  16) = (  0.2500000  0.0000000  0.2500000  )
        17        Al     tau(  17) = (  0.2500000  0.0000000  0.7500000  )
        18        Al     tau(  18) = (  0.2500000  0.5000000  0.2500000  )
        19        Al     tau(  19) = (  0.2500000  0.5000000  0.7500000  )
        20        Al     tau(  20) = (  0.7500000  0.0000000  0.2500000  )
        21        Al     tau(  21) = (  0.7500000  0.0000000  0.7500000  )
        22        Al     tau(  22) = (  0.7500000  0.5000000  0.2500000  )
        23        Al     tau(  23) = (  0.7500000  0.5000000  0.7500000  )
        24        Al     tau(  24) = (  0.2500000  0.2500000  0.0000000  )
        25        Al     tau(  25) = (  0.2500000  0.2500000  0.5000000  )
        26        Al     tau(  26) = (  0.2500000  0.7500000  0.0000000  )
        27        Al     tau(  27) = (  0.2500000  0.7500000  0.5000000  )
        28        Al     tau(  28) = (  0.7500000  0.2500000  0.0000000  )
        29        Al     tau(  29) = (  0.7500000  0.2500000  0.5000000  )
        30        Al     tau(  30) = (  0.7500000  0.7500000  0.0000000  )
        31        Al     tau(  31) = (  0.7500000  0.7500000  0.5000000  )

     number of k points=    10  Fermi-Dirac smearing, width (Ry)=  0.0005
                       cart. coord. in units 2pi/alat
        k(    1) = (   0.0000000   0.0000000   0.0000000), wk =   0.0160000
        k(    2) = (   0.0000000   0.0000000   0.2000000), wk =   0.0960000
        k(    3) = (   0.0000000   0.0000000   0.4000000), wk =   0.0960000
        k(    4) = (   0.0000000   0.2000000   0.2000000), wk =   0.1920000
        k(    5) = (   0.0000000   0.2000000   0.4000000), wk =   0.3840000
        k(    6) = (   0.0000000   0.4000000   0.4000000), wk =   0.1920000
        k(    7) = (   0.2000000   0.2000000   0.2000000), wk =   0.1280000
        k(    8) = (   0.2000000   0.2000000   0.4000000), wk =   0.3840000
        k(    9) = (   0.2000000   0.4000000   0.4000000), wk =   0.3840000
        k(   10) = (   0.4000000   0.4000000   0.4000000), wk =   0.1280000

                       cryst. coord.
        k(    1) = (   0.0000000   0.0000000   0.0000000), wk =   0.0160000
        k(    2) = (   0.0000000   0.0000000   0.2000000), wk =   0.0960000
        k(    3) = (   0.0000000   0.0000000   0.4000000), wk =   0.0960000
        k(    4) = (   0.0000000   0.2000000   0.2000000), wk =   0.1920000
        k(    5) = (   0.0000000   0.2000000   0.4000000), wk =   0.3840000
        k(    6) = (   0.0000000   0.4000000   0.4000000), wk =   0.1920000
        k(    7) = (   0.2000000   0.2000000   0.2000000), wk =   0.1280000
        k(    8) = (   0.2000000   0.2000000   0.4000000), wk =   0.3840000
        k(    9) = (   0.2000000   0.4000000   0.4000000), wk =   0.3840000
        k(   10) = (   0.4000000   0.4000000   0.4000000), wk =   0.1280000

     Dense  grid:   338275 G-vectors     FFT dimensions: (  90,  90,  90)

     Smooth grid:   119825 G-vectors     FFT dimensions: (  64,  64,  64)

     Dynamical RAM for                 wfc:      12.77 MB

     Dynamical RAM for     wfc (w. buffer):      12.77 MB

     Dynamical RAM for           str. fact:       5.16 MB

     Dynamical RAM for           local pot:       0.00 MB

     Dynamical RAM for          nlocal pot:     127.29 MB

     Dynamical RAM for                qrad:       2.87 MB

     Dynamical RAM for          rho,v,vnew:      32.17 MB

     Dynamical RAM for               rhoin:      10.72 MB

     Dynamical RAM for            rho*nmix:      82.59 MB

     Dynamical RAM for           G-vectors:      20.27 MB

     Dynamical RAM for          h,s,v(r/c):       0.57 MB

     Dynamical RAM for          <psi|beta>:       0.48 MB

     Dynamical RAM for                 psi:      25.55 MB

     Dynamical RAM for                hpsi:      25.55 MB

     Dynamical RAM for                spsi:      25.55 MB

     Dynamical RAM for      wfcinit/wfcrot:      56.93 MB

     Dynamical RAM for           addusdens:     116.65 MB

     Dynamical RAM for          addusforce:     145.68 MB

     Dynamical RAM for         addusstress:     106.07 MB

     Estimated static dynamical RAM per process >     249.40 MB

     Estimated max dynamical RAM per process >     477.66 MB

     Estimated total dynamical RAM >       3.94 GB

     Initial potential from superposition of free atoms

     starting charge      92.9322, renormalised to      93.0000
     Starting wfcs are  124 randomized atomic wfcs
     Checking if some PAW data can be deallocated... 

     total cpu time spent up to now is       16.0 secs

     Self-consistent Calculation

     iteration #  1     ecut=    40.00 Ry     beta= 0.70
     Davidson diagonalization with overlap

---- Real-time Memory Report at c_bands before calling an iterative solver
           340 MiB given to the printing process from OS
             0 MiB allocation reported by mallinfo(arena+hblkhd)
         21134 MiB available memory on the node where the printing process lives
------------------
     ethr =  1.00E-02,  avg # of iterations =  3.8

     Threshold (ethr) on eigenvalues was too large:
     Diagonalizing with lowered threshold

     Davidson diagonalization with overlap

---- Real-time Memory Report at c_bands before calling an iterative solver
           408 MiB given to the printing process from OS
             0 MiB allocation reported by mallinfo(arena+hblkhd)
         20635 MiB available memory on the node where the printing process lives
------------------
     ethr =  2.08E-04,  avg # of iterations =  5.0

     total cpu time spent up to now is       59.4 secs

     total energy              =   -1193.88654220 Ry
     estimated scf accuracy    <       0.22348905 Ry

     iteration #  2     ecut=    40.00 Ry     beta= 0.70
     Davidson diagonalization with overlap

---- Real-time Memory Report at c_bands before calling an iterative solver
           428 MiB given to the printing process from OS
             0 MiB allocation reported by mallinfo(arena+hblkhd)
         20489 MiB available memory on the node where the printing process lives
------------------
     ethr =  2.40E-04,  avg # of iterations =  4.4

     total cpu time spent up to now is       81.8 secs

     total energy              =   -1193.82442344 Ry
     estimated scf accuracy    <       0.40097209 Ry

     iteration #  3     ecut=    40.00 Ry     beta= 0.70
     Davidson diagonalization with overlap

---- Real-time Memory Report at c_bands before calling an iterative solver
           468 MiB given to the printing process from OS
             0 MiB allocation reported by mallinfo(arena+hblkhd)
         20269 MiB available memory on the node where the printing process lives
------------------
     ethr =  2.40E-04,  avg # of iterations =  4.1

     total cpu time spent up to now is      102.9 secs

     total energy              =   -1193.90267089 Ry
     estimated scf accuracy    <       0.15111746 Ry

     iteration #  4     ecut=    40.00 Ry     beta= 0.70
     Davidson diagonalization with overlap

---- Real-time Memory Report at c_bands before calling an iterative solver
           472 MiB given to the printing process from OS
             0 MiB allocation reported by mallinfo(arena+hblkhd)
         20424 MiB available memory on the node where the printing process lives
------------------
     ethr =  1.62E-04,  avg # of iterations =  2.2

     total cpu time spent up to now is      120.6 secs

     total energy              =   -1193.92297628 Ry
     estimated scf accuracy    <       0.01746271 Ry

     iteration #  5     ecut=    40.00 Ry     beta= 0.70
     Davidson diagonalization with overlap

---- Real-time Memory Report at c_bands before calling an iterative solver
           476 MiB given to the printing process from OS
             0 MiB allocation reported by mallinfo(arena+hblkhd)
         20487 MiB available memory on the node where the printing process lives
------------------
     ethr =  1.88E-05,  avg # of iterations =  5.3

     total cpu time spent up to now is      141.1 secs

     total energy              =   -1193.92693997 Ry
     estimated scf accuracy    <       0.00050365 Ry

     iteration #  6     ecut=    40.00 Ry     beta= 0.70
     Davidson diagonalization with overlap

---- Real-time Memory Report at c_bands before calling an iterative solver
           480 MiB given to the printing process from OS
             0 MiB allocation reported by mallinfo(arena+hblkhd)
         20433 MiB available memory on the node where the printing process lives
------------------
     ethr =  5.42E-07,  avg # of iterations = 10.6

     total cpu time spent up to now is      174.3 secs

     total energy              =   -1193.92748723 Ry
     estimated scf accuracy    <       0.00018610 Ry

     iteration #  7     ecut=    40.00 Ry     beta= 0.70
     Davidson diagonalization with overlap

---- Real-time Memory Report at c_bands before calling an iterative solver
           483 MiB given to the printing process from OS
             0 MiB allocation reported by mallinfo(arena+hblkhd)
         20650 MiB available memory on the node where the printing process lives
------------------
     ethr =  2.00E-07,  avg # of iterations =  4.5

     total cpu time spent up to now is      194.0 secs

     total energy              =   -1193.92752840 Ry
     estimated scf accuracy    <       0.00001776 Ry

     iteration #  8     ecut=    40.00 Ry     beta= 0.70
     Davidson diagonalization with overlap

---- Real-time Memory Report at c_bands before calling an iterative solver
           487 MiB given to the printing process from OS
             0 MiB allocation reported by mallinfo(arena+hblkhd)
         20286 MiB available memory on the node where the printing process lives
------------------
     ethr =  1.91E-08,  avg # of iterations =  5.6

     total cpu time spent up to now is      216.9 secs

     total energy              =   -1193.92753324 Ry
     estimated scf accuracy    <       0.00000724 Ry

     iteration #  9     ecut=    40.00 Ry     beta= 0.70
     Davidson diagonalization with overlap

---- Real-time Memory Report at c_bands before calling an iterative solver
           491 MiB given to the printing process from OS
             0 MiB allocation reported by mallinfo(arena+hblkhd)
         20344 MiB available memory on the node where the printing process lives
------------------
     ethr =  7.79E-09,  avg # of iterations =  2.8

     total cpu time spent up to now is      235.7 secs

     total energy              =   -1193.92753451 Ry
     estimated scf accuracy    <       0.00000047 Ry

     iteration # 10     ecut=    40.00 Ry     beta= 0.70
     Davidson diagonalization with overlap

---- Real-time Memory Report at c_bands before calling an iterative solver
           494 MiB given to the printing process from OS
             0 MiB allocation reported by mallinfo(arena+hblkhd)
         20334 MiB available memory on the node where the printing process lives
------------------
     ethr =  5.07E-10,  avg # of iterations =  6.6

     total cpu time spent up to now is      260.0 secs

     total energy              =   -1193.92753473 Ry
     estimated scf accuracy    <       0.00000011 Ry

     iteration # 11     ecut=    40.00 Ry     beta= 0.70
     Davidson diagonalization with overlap

---- Real-time Memory Report at c_bands before calling an iterative solver
           498 MiB given to the printing process from OS
             0 MiB allocation reported by mallinfo(arena+hblkhd)
         20416 MiB available memory on the node where the printing process lives
------------------
     ethr =  1.14E-10,  avg # of iterations =  2.8

     total cpu time spent up to now is      278.6 secs

     total energy              =   -1193.92753475 Ry
     estimated scf accuracy    <       0.00000001 Ry

     iteration # 12     ecut=    40.00 Ry     beta= 0.70
     Davidson diagonalization with overlap

---- Real-time Memory Report at c_bands before calling an iterative solver
           498 MiB given to the printing process from OS
             0 MiB allocation reported by mallinfo(arena+hblkhd)
         20395 MiB available memory on the node where the printing process lives
------------------
     ethr =  1.30E-11,  avg # of iterations =  7.5

     total cpu time spent up to now is      305.9 secs

     End of self-consistent calculation

          k = 0.0000 0.0000 0.0000 ( 14939 PWs)   bands (ev):

    -3.4636  -1.3096  -1.3096  -1.2183  -1.2183  -1.2183  -0.7913   0.9218
     0.9218   0.9218   0.9342   0.9342   0.9840   0.9840   0.9840   1.2273
     1.2273   1.2273   1.9739   3.0350   3.2425   3.2425   3.2425   3.3644
     3.3644   3.3644   4.1805   4.8842   4.8842   4.8842   6.1829   6.1829
     6.4464   6.8043   6.8043   6.8043   6.8121   6.8121   6.8121   6.9904
     6.9904   6.9904   7.2841   7.2841   7.2841   7.7850   8.0007   8.0007
     8.0007   8.0989   8.0989   8.9205   8.9205   8.9458   8.9459   8.9459

     occupation numbers 
     1.0000   1.0000   1.0000   1.0000   1.0000   1.0000   1.0000   1.0000
     1.0000   1.0000   1.0000   1.0000   1.0000   1.0000   1.0000   1.0000
     1.0000   1.0000   1.0000   1.0000   1.0000   1.0000   1.0000   1.0000
     1.0000   1.0000   1.0000   1.0000   1.0000   1.0000   1.0000   1.0000
     1.0000   1.0000   1.0000   1.0000   1.0000   1.0000   1.0000   1.0000
     1.0000   1.0000   1.0000   1.0000   1.0000   0.0004   0.0000   0.0000
     0.0000   0.0000   0.0000   0.0000   0.0000   0.0000   0.0000   0.0000

          k = 0.0000 0.0000 0.2000 ( 14951 PWs)   bands (ev):

    -3.3747  -2.0113  -1.2195  -1.1298  -1.1298  -0.9047  -0.1683   0.1269
     0.2189   0.2189   0.5223   1.0721   1.1576   1.1576   1.3584   1.9001
     2.0041   2.0041   2.3844   2.3945   2.5326   2.5326   2.9591   3.8088
     4.1744   4.2458   4.2458   4.7511   4.9695   4.9695   5.7305   5.8068
     5.8068   6.2295   6.2295   6.2437   6.2705   6.4455   6.8961   7.0669
     7.1349   7.1349   7.5216   7.5355   7.5475   7.8982   7.8982   7.9316
     8.0086   8.0086   8.1593   8.3495   8.3495   8.3774   8.3983   8.4246

     occupation numbers 
     1.0000   1.0000   1.0000   1.0000   1.0000   1.0000   1.0000   1.0000
     1.0000   1.0000   1.0000   1.0000   1.0000   1.0000   1.0000   1.0000
     1.0000   1.0000   1.0000   1.0000   1.0000   1.0000   1.0000   1.0000
     1.0000   1.0000   1.0000   1.0000   1.0000   1.0000   1.0000   1.0000
     1.0000   1.0000   1.0000   1.0000   1.0000   1.0000   1.0000   1.0000
     1.0000   1.0000   1.0000   1.0000   1.0000   0.0000   0.0000   0.0000
     0.0000   0.0000   0.0000   0.0000   0.0000   0.0000   0.0000   0.0000

          k = 0.0000 0.0000 0.4000 ( 14942 PWs)   bands (ev):

    -3.1176  -2.6184  -0.9499  -0.8717  -0.8717  -0.7213  -0.4989  -0.3893
    -0.3893   0.0392   0.9517   1.3328   1.3956   1.3956   1.5245   1.7889
     1.9304   1.9304   2.0949   2.5601   3.0372   3.1473   3.1473   3.6858
     4.3276   4.4239   4.4239   4.8966   5.1251   5.1251   5.2892   5.3993
     5.3993   5.6972   5.6972   5.7422   6.5057   6.5581   6.6598   6.6598
     6.6760   6.8090   7.0200   7.1480   7.2778   7.3201   7.3201   7.4340
     7.5703   7.8518   8.0161   8.0161   8.7324   8.7324   8.7455   8.8661

     occupation numbers 
     1.0000   1.0000   1.0000   1.0000   1.0000   1.0000   1.0000   1.0000
     1.0000   1.0000   1.0000   1.0000   1.0000   1.0000   1.0000   1.0000
     1.0000   1.0000   1.0000   1.0000   1.0000   1.0000   1.0000   1.0000
     1.0000   1.0000   1.0000   1.0000   1.0000   1.0000   1.0000   1.0000
     1.0000   1.0000   1.0000   1.0000   1.0000   1.0000   1.0000   1.0000
     1.0000   1.0000   1.0000   1.0000   1.0000   1.0000   1.0000   1.0000
     1.0000   0.0000   0.0000   0.0000   0.0000   0.0000   0.0000   0.0000

          k = 0.0000 0.2000 0.2000 ( 14980 PWs)   bands (ev):

    -3.2857  -1.9870  -1.8463  -1.0414  -0.9821  -0.5392  -0.1919  -0.0238
     0.2410   0.2839   0.3886   0.6140   1.2482   1.2913   1.6587   1.8674
     2.0126   2.0722   2.1752   2.4533   3.0966   3.3132   3.3736   3.5427
     3.7466   3.8815   4.1351   4.9882   5.0193   5.2101   5.2384   5.4453
     5.7724   5.9134   6.0305   6.2115   6.2276   6.4553   6.4559   6.7868
     6.8412   7.1602   7.2432   7.3268   7.5443   7.6098   7.6695   7.6784
     7.7166   7.8606   8.1432   8.1798   8.6549   8.6575   8.8984   8.9062

     occupation numbers 
     1.0000   1.0000   1.0000   1.0000   1.0000   1.0000   1.0000   1.0000
     1.0000   1.0000   1.0000   1.0000   1.0000   1.0000   1.0000   1.0000
     1.0000   1.0000   1.0000   1.0000   1.0000   1.0000   1.0000   1.0000
     1.0000   1.0000   1.0000   1.0000   1.0000   1.0000   1.0000   1.0000
     1.0000   1.0000   1.0000   1.0000   1.0000   1.0000   1.0000   1.0000
     1.0000   1.0000   1.0000   1.0000   1.0000   1.0000   0.9999   0.9996
     0.9071   0.0000   0.0000   0.0000   0.0000   0.0000   0.0000   0.0000

          k = 0.0000 0.2000 0.4000 ( 14947 PWs)   bands (ev):

    -3.0282  -2.5339  -1.6572  -1.1720  -0.7831  -0.7139  -0.3045  -0.2092
     0.1643   0.5732   0.6087   0.7000   1.0512   1.0646   1.4025   2.3328
     2.3621   2.3766   2.4789   2.8101   3.0642   3.2391   3.4495   3.7077
     4.0501   4.2226   4.5046   4.5461   4.5531   4.6868   4.9377   5.2507
     5.4765   5.6939   5.8757   6.0793   6.1701   6.2827   6.2887   6.4376
     6.5265   6.6392   6.7352   7.0255   7.1279   7.2171   7.5587   7.7691
     7.8272   7.9717   8.1845   8.2013   8.3675   8.7410   8.7717   9.1598

     occupation numbers 
     1.0000   1.0000   1.0000   1.0000   1.0000   1.0000   1.0000   1.0000
     1.0000   1.0000   1.0000   1.0000   1.0000   1.0000   1.0000   1.0000
     1.0000   1.0000   1.0000   1.0000   1.0000   1.0000   1.0000   1.0000
     1.0000   1.0000   1.0000   1.0000   1.0000   1.0000   1.0000   1.0000
     1.0000   1.0000   1.0000   1.0000   1.0000   1.0000   1.0000   1.0000
     1.0000   1.0000   1.0000   1.0000   1.0000   1.0000   1.0000   0.0043
     0.0000   0.0000   0.0000   0.0000   0.0000   0.0000   0.0000   0.0000

          k = 0.0000 0.4000 0.4000 ( 14956 PWs)   bands (ev):

    -2.7671  -2.3492  -2.2177  -1.7466  -0.5231  -0.4737  -0.1159  -0.0735
     0.0145   0.1108   0.4710   0.7497   1.2239   1.4000   1.7747   1.9447
     2.6230   2.6471   3.0078   3.3017   3.4026   3.4237   3.5018   3.6908
     3.8540   3.9456   4.0706   4.4883   4.6189   4.7562   4.9263   5.0109
     5.1725   5.3066   5.3159   5.3897   5.4825   5.8573   5.9455   6.0382
     6.4937   6.6235   6.7086   6.8412   7.3760   7.4034   7.5523   7.6640
     7.8875   8.3742   8.6368   8.6614   8.8944   9.0262   9.1993   9.3762

     occupation numbers 
     1.0000   1.0000   1.0000   1.0000   1.0000   1.0000   1.0000   1.0000
     1.0000   1.0000   1.0000   1.0000   1.0000   1.0000   1.0000   1.0000
     1.0000   1.0000   1.0000   1.0000   1.0000   1.0000   1.0000   1.0000
     1.0000   1.0000   1.0000   1.0000   1.0000   1.0000   1.0000   1.0000
     1.0000   1.0000   1.0000   1.0000   1.0000   1.0000   1.0000   1.0000
     1.0000   1.0000   1.0000   1.0000   1.0000   1.0000   1.0000   1.0000
     0.0000   0.0000   0.0000   0.0000   0.0000   0.0000   0.0000   0.0000

          k = 0.2000 0.2000 0.2000 ( 14940 PWs)   bands (ev):

    -3.1967  -1.8970  -1.8970  -1.6654  -0.5438  -0.5438  -0.2679  -0.0966
    -0.0966   0.2071   0.9406   1.1871   1.2240   1.2240   1.4083   1.4083
     1.7839   2.6820   2.6820   2.7720   3.0113   3.0113   3.4664   3.9021
     3.9021   3.9591   4.4508   4.4508   4.8016   5.0414   5.0853   5.0853
     5.3300   5.3300   5.5066   6.2433   6.4257   6.4257   6.7890   6.8261
     6.8430   6.8430   7.1257   7.1257   7.2509   7.6282   7.6282   7.8040
     8.0841   8.1685   8.1685   8.4331   8.4331   8.4580   8.8338   8.8548

     occupation numbers 
     1.0000   1.0000   1.0000   1.0000   1.0000   1.0000   1.0000   1.0000
     1.0000   1.0000   1.0000   1.0000   1.0000   1.0000   1.0000   1.0000
     1.0000   1.0000   1.0000   1.0000   1.0000   1.0000   1.0000   1.0000
     1.0000   1.0000   1.0000   1.0000   1.0000   1.0000   1.0000   1.0000
     1.0000   1.0000   1.0000   1.0000   1.0000   1.0000   1.0000   1.0000
     1.0000   1.0000   1.0000   1.0000   1.0000   1.0000   1.0000   0.0000
     0.0000   0.0000   0.0000   0.0000   0.0000   0.0000   0.0000   0.0000

          k = 0.2000 0.2000 0.4000 ( 14929 PWs)   bands (ev):

    -2.9388  -2.4488  -1.6300  -1.5049  -1.1661  -0.9388  -0.1826   0.1653
     0.2696   0.3854   0.6203   0.8780   1.1636   1.5704   1.6422   2.0941
     2.1314   2.4035   2.5237   2.7239   3.3454   3.6818   3.6833   3.9021
     4.0158   4.0930   4.1691   4.1878   4.5497   4.6570   4.6582   5.1695
     5.2323   5.4773   5.5242   5.5997   5.7465   5.7947   5.8814   6.4237
     6.8215   6.9821   7.1820   7.1826   7.3149   7.7415   7.7436   7.8476
     7.9510   7.9903   8.0707   8.4572   8.5097   8.7486   9.2093   9.2491

     occupation numbers 
     1.0000   1.0000   1.0000   1.0000   1.0000   1.0000   1.0000   1.0000
     1.0000   1.0000   1.0000   1.0000   1.0000   1.0000   1.0000   1.0000
     1.0000   1.0000   1.0000   1.0000   1.0000   1.0000   1.0000   1.0000
     1.0000   1.0000   1.0000   1.0000   1.0000   1.0000   1.0000   1.0000
     1.0000   1.0000   1.0000   1.0000   1.0000   1.0000   1.0000   1.0000
     1.0000   1.0000   1.0000   1.0000   1.0000   0.2006   0.1542   0.0000
     0.0000   0.0000   0.0000   0.0000   0.0000   0.0000   0.0000   0.0000

          k = 0.2000 0.4000 0.4000 ( 14957 PWs)   bands (ev):

    -2.6775  -2.2589  -2.1351  -1.6816  -1.2937  -0.8994  -0.7190  -0.1625
     0.4810   0.8797   1.0246   1.3126   1.4295   1.5644   1.8582   2.0404
     2.6297   2.7071   2.7196   2.8326   3.0707   3.2539   3.2997   3.4469
     4.0358   4.0592   4.2491   4.3999   4.4681   4.5707   4.7425   4.8030
     4.9479   4.9743   5.1449   5.4650   5.7633   5.7785   5.8727   6.1587
     6.4996   6.7302   6.7695   6.8550   7.8180   7.9885   7.9936   8.1903
     8.2873   8.3528   8.4582   8.5559   8.7521   8.7788   8.9810   9.2118

     occupation numbers 
     1.0000   1.0000   1.0000   1.0000   1.0000   1.0000   1.0000   1.0000
     1.0000   1.0000   1.0000   1.0000   1.0000   1.0000   1.0000   1.0000
     1.0000   1.0000   1.0000   1.0000   1.0000   1.0000   1.0000   1.0000
     1.0000   1.0000   1.0000   1.0000   1.0000   1.0000   1.0000   1.0000
     1.0000   1.0000   1.0000   1.0000   1.0000   1.0000   1.0000   1.0000
     1.0000   1.0000   1.0000   1.0000   0.0000   0.0000   0.0000   0.0000
     0.0000   0.0000   0.0000   0.0000   0.0000   0.0000   0.0000   0.0000

          k = 0.4000 0.4000 0.4000 ( 14979 PWs)   bands (ev):

    -2.4143  -1.9912  -1.9912  -1.8423  -1.5251  -1.5251  -1.2769  -0.6624
     1.5713   1.5713   1.7234   1.9786   2.0125   2.0125   2.1466   2.1466
     2.3258   2.6009   2.6009   2.7809   2.9755   2.9755   3.1500   3.2803
     3.3242   3.3242   3.5544   3.5544   3.6680   3.9000   3.9000   4.7601
     5.5292   5.5292   5.7469   6.0611   6.0611   6.4764   6.7712   6.7955
     6.7955   6.9922   6.9922   6.9934   7.2114   7.3339   7.3339   7.6294
     7.6294   7.7958   8.1860   8.1860   8.2513   8.5934   8.5934   9.2140

     occupation numbers 
     1.0000   1.0000   1.0000   1.0000   1.0000   1.0000   1.0000   1.0000
     1.0000   1.0000   1.0000   1.0000   1.0000   1.0000   1.0000   1.0000
     1.0000   1.0000   1.0000   1.0000   1.0000   1.0000   1.0000   1.0000
     1.0000   1.0000   1.0000   1.0000   1.0000   1.0000   1.0000   1.0000
     1.0000   1.0000   1.0000   1.0000   1.0000   1.0000   1.0000   1.0000
     1.0000   1.0000   1.0000   1.0000   1.0000   1.0000   1.0000   1.0000
     1.0000   0.0001   0.0000   0.0000   0.0000   0.0000   0.0000   0.0000

     the Fermi energy is     7.7321 ev

!    total energy              =   -1193.92753475 Ry
     total all-electron energy =    -15025.436065 Ry
     estimated scf accuracy    <          4.9E-09 Ry
     smearing contrib. (-TS)   =      -0.00021437 Ry
     internal energy E=F+TS    =   -1193.92732039 Ry

     The total energy is F=E-TS. E is the sum of the following terms:
     one-electron contribution =      94.00623707 Ry
     hartree contribution      =       1.65105188 Ry
     xc contribution           =     -80.11537898 Ry
     ewald contribution        =    -164.75526428 Ry
     one-center paw contrib.   =   -1044.71396608 Ry
      -> PAW hartree energy AE =       5.62706148 Ry
      -> PAW hartree energy PS =      -5.60962126 Ry
      -> PAW xc energy AE      =    -142.40287843 Ry
      -> PAW xc energy PS      =       7.58642692 Ry
      -> total E_H with PAW    =       1.66849210 Ry
      -> total E_XC with PAW   =    -214.93183049 Ry

     convergence has been achieved in  12 iterations

     Forces acting on atoms (cartesian axes, Ry/au):

     atom    1 type  1   force =     0.00000000    0.00000000    0.00000000
     atom    2 type  1   force =     0.00000000    0.00000000    0.00000000
     atom    3 type  1   force =     0.00000000    0.00000000    0.00000000
     atom    4 type  1   force =     0.00000000    0.00000000    0.00000000
     atom    5 type  1   force =     0.00000000    0.00000000    0.00000000
     atom    6 type  1   force =     0.00000000    0.00000000    0.00000000
     atom    7 type  1   force =     0.00000000    0.00000000    0.00000000
     atom    8 type  1   force =     0.00000000   -0.00689960   -0.00689960
     atom    9 type  1   force =    -0.00000000   -0.00689960    0.00689960
     atom   10 type  1   force =     0.00000000    0.00689960   -0.00689960
     atom   11 type  1   force =    -0.00000000    0.00689960    0.00689960
     atom   12 type  1   force =     0.00000000    0.00020716    0.00020716
     atom   13 type  1   force =    -0.00000000    0.00020716   -0.00020716
     atom   14 type  1   force =    -0.00000000   -0.00020716    0.00020716
     atom   15 type  1   force =    -0.00000000   -0.00020716   -0.00020716
     atom   16 type  1   force =    -0.00689960    0.00000000   -0.00689960
     atom   17 type  1   force =    -0.00689960   -0.00000000    0.00689960
     atom   18 type  1   force =     0.00020716   -0.00000000    0.00020716
     atom   19 type  1   force =     0.00020716    0.00000000   -0.00020716
     atom   20 type  1   force =     0.00689960    0.00000000   -0.00689960
     atom   21 type  1   force =     0.00689960   -0.00000000    0.00689960
     atom   22 type  1   force =    -0.00020716    0.00000000    0.00020716
     atom   23 type  1   force =    -0.00020716    0.00000000   -0.00020716
     atom   24 type  1   force =    -0.00689960   -0.00689960   -0.00000000
     atom   25 type  1   force =     0.00020716    0.00020716   -0.00000000
     atom   26 type  1   force =    -0.00689960    0.00689960    0.00000000
     atom   27 type  1   force =     0.00020716   -0.00020716   -0.00000000
     atom   28 type  1   force =     0.00689960   -0.00689960    0.00000000
     atom   29 type  1   force =    -0.00020716    0.00020716    0.00000000
     atom   30 type  1   force =     0.00689960    0.00689960    0.00000000
     atom   31 type  1   force =    -0.00020716   -0.00020716    0.00000000
     The non-local contrib.  to forces
     atom    1 type  1   force =     0.00000000    0.00000000    0.00000000
     atom    2 type  1   force =     0.00000000    0.00000000    0.00000000
     atom    3 type  1   force =     0.00000000    0.00000000    0.00000000
     atom    4 type  1   force =     0.00000000    0.00000000    0.00000000
     atom    5 type  1   force =     0.00000000    0.00000000    0.00000000
     atom    6 type  1   force =     0.00000000    0.00000000    0.00000000
     atom    7 type  1   force =     0.00000000    0.00000000    0.00000000
     atom    8 type  1   force =     0.00000000   -0.00691129   -0.00691129
     atom    9 type  1   force =    -0.00000000   -0.00691129    0.00691129
     atom   10 type  1   force =     0.00000000    0.00691129   -0.00691129
     atom   11 type  1   force =    -0.00000000    0.00691129    0.00691129
     atom   12 type  1   force =    -0.00000000    0.00127987    0.00127987
     atom   13 type  1   force =     0.00000000    0.00127987   -0.00127987
     atom   14 type  1   force =     0.00000000   -0.00127987    0.00127987
     atom   15 type  1   force =    -0.00000000   -0.00127987   -0.00127987
     atom   16 type  1   force =    -0.00691129   -0.00000000   -0.00691129
     atom   17 type  1   force =    -0.00691129   -0.00000000    0.00691129
     atom   18 type  1   force =     0.00127987   -0.00000000    0.00127987
     atom   19 type  1   force =     0.00127987    0.00000000   -0.00127987
     atom   20 type  1   force =     0.00691129    0.00000000   -0.00691129
     atom   21 type  1   force =     0.00691129   -0.00000000    0.00691129
     atom   22 type  1   force =    -0.00127987    0.00000000    0.00127987
     atom   23 type  1   force =    -0.00127987    0.00000000   -0.00127987
     atom   24 type  1   force =    -0.00691129   -0.00691129    0.00000000
     atom   25 type  1   force =     0.00127987    0.00127987    0.00000000
     atom   26 type  1   force =    -0.00691129    0.00691129    0.00000000
     atom   27 type  1   force =     0.00127987   -0.00127987    0.00000000
     atom   28 type  1   force =     0.00691129   -0.00691129   -0.00000000
     atom   29 type  1   force =    -0.00127987    0.00127987    0.00000000
     atom   30 type  1   force =     0.00691129    0.00691129    0.00000000
     atom   31 type  1   force =    -0.00127987   -0.00127987    0.00000000
     The ionic contribution  to forces
     atom    1 type  1   force =    -0.00000000   -0.00000000    0.00000000
     atom    2 type  1   force =    -0.00000000    0.00000000   -0.00000000
     atom    3 type  1   force =    -0.00000000    0.00000000    0.00000000
     atom    4 type  1   force =     0.00000000   -0.00000000   -0.00000000
     atom    5 type  1   force =    -0.00000000   -0.00000000    0.00000000
     atom    6 type  1   force =    -0.00000000    0.00000000   -0.00000000
     atom    7 type  1   force =    -0.00000000   -0.00000000   -0.00000000
     atom    8 type  1   force =     0.00000000   -0.36870711   -0.36870711
     atom    9 type  1   force =    -0.00000000   -0.36870711    0.36870711
     atom   10 type  1   force =    -0.00000000    0.36870711   -0.36870711
     atom   11 type  1   force =    -0.00000000    0.36870711    0.36870711
     atom   12 type  1   force =     0.00000000   -0.08329302   -0.08329302
     atom   13 type  1   force =    -0.00000000   -0.08329302    0.08329302
     atom   14 type  1   force =     0.00000000    0.08329302   -0.08329302
     atom   15 type  1   force =    -0.00000000    0.08329302    0.08329302
     atom   16 type  1   force =    -0.36870711   -0.00000000   -0.36870711
     atom   17 type  1   force =    -0.36870711   -0.00000000    0.36870711
     atom   18 type  1   force =    -0.08329302    0.00000000   -0.08329302
     atom   19 type  1   force =    -0.08329302    0.00000000    0.08329302
     atom   20 type  1   force =     0.36870711   -0.00000000   -0.36870711
     atom   21 type  1   force =     0.36870711   -0.00000000    0.36870711
     atom   22 type  1   force =     0.08329302   -0.00000000   -0.08329302
     atom   23 type  1   force =     0.08329302   -0.00000000    0.08329302
     atom   24 type  1   force =    -0.36870711   -0.36870711   -0.00000000
     atom   25 type  1   force =    -0.08329302   -0.08329302    0.00000000
     atom   26 type  1   force =    -0.36870711    0.36870711   -0.00000000
     atom   27 type  1   force =    -0.08329302    0.08329302   -0.00000000
     atom   28 type  1   force =     0.36870711   -0.36870711   -0.00000000
     atom   29 type  1   force =     0.08329302   -0.08329302   -0.00000000
     atom   30 type  1   force =     0.36870711    0.36870711   -0.00000000
     atom   31 type  1   force =     0.08329302    0.08329302   -0.00000000
     The local contribution  to forces
     atom    1 type  1   force =     0.00000000    0.00000000    0.00000000
     atom    2 type  1   force =     0.00000000    0.00000000    0.00000000
     atom    3 type  1   force =     0.00000000    0.00000000   -0.00000000
     atom    4 type  1   force =    -0.00000000    0.00000000    0.00000000
     atom    5 type  1   force =    -0.00000000    0.00000000   -0.00000000
     atom    6 type  1   force =    -0.00000000    0.00000000    0.00000000
     atom    7 type  1   force =    -0.00000000    0.00000000   -0.00000000
     atom    8 type  1   force =     0.00000000    0.36726498    0.36726498
     atom    9 type  1   force =     0.00000000    0.36726498   -0.36726498
     atom   10 type  1   force =     0.00000000   -0.36726498    0.36726498
     atom   11 type  1   force =     0.00000000   -0.36726498   -0.36726498
     atom   12 type  1   force =    -0.00000000    0.08233607    0.08233607
     atom   13 type  1   force =    -0.00000000    0.08233607   -0.08233607
     atom   14 type  1   force =    -0.00000000   -0.08233607    0.08233607
     atom   15 type  1   force =    -0.00000000   -0.08233607   -0.08233607
     atom   16 type  1   force =     0.36726498    0.00000000    0.36726498
     atom   17 type  1   force =     0.36726498    0.00000000   -0.36726498
     atom   18 type  1   force =     0.08233607    0.00000000    0.08233607
     atom   19 type  1   force =     0.08233607    0.00000000   -0.08233607
     atom   20 type  1   force =    -0.36726498    0.00000000    0.36726498
     atom   21 type  1   force =    -0.36726498    0.00000000   -0.36726498
     atom   22 type  1   force =    -0.08233607   -0.00000000    0.08233607
     atom   23 type  1   force =    -0.08233607    0.00000000   -0.08233607
     atom   24 type  1   force =     0.36726498    0.36726498    0.00000000
     atom   25 type  1   force =     0.08233607    0.08233607   -0.00000000
     atom   26 type  1   force =     0.36726498   -0.36726498    0.00000000
     atom   27 type  1   force =     0.08233607   -0.08233607   -0.00000000
     atom   28 type  1   force =    -0.36726498    0.36726498    0.00000000
     atom   29 type  1   force =    -0.08233607    0.08233607   -0.00000000
     atom   30 type  1   force =    -0.36726498   -0.36726498    0.00000000
     atom   31 type  1   force =    -0.08233607   -0.08233607   -0.00000000
     The core correction contribution to forces
     atom    1 type  1   force =     0.00000000    0.00000000    0.00000000
     atom    2 type  1   force =     0.00000000    0.00000000   -0.00000000
     atom    3 type  1   force =     0.00000000    0.00000000    0.00000000
     atom    4 type  1   force =    -0.00000000    0.00000000   -0.00000000
     atom    5 type  1   force =    -0.00000000    0.00000000    0.00000000
     atom    6 type  1   force =    -0.00000000    0.00000000   -0.00000000
     atom    7 type  1   force =    -0.00000000    0.00000000    0.00000000
     atom    8 type  1   force =    -0.00000000    0.00147067    0.00147067
     atom    9 type  1   force =    -0.00000000    0.00147067   -0.00147067
     atom   10 type  1   force =    -0.00000000   -0.00147067    0.00147067
     atom   11 type  1   force =     0.00000000   -0.00147067   -0.00147067
     atom   12 type  1   force =    -0.00000000   -0.00010779   -0.00010779
     atom   13 type  1   force =    -0.00000000   -0.00010779    0.00010779
     atom   14 type  1   force =    -0.00000000    0.00010779   -0.00010779
     atom   15 type  1   force =    -0.00000000    0.00010779    0.00010779
     atom   16 type  1   force =     0.00147067    0.00000000    0.00147067
     atom   17 type  1   force =     0.00147067    0.00000000   -0.00147067
     atom   18 type  1   force =    -0.00010779   -0.00000000   -0.00010779
     atom   19 type  1   force =    -0.00010779   -0.00000000    0.00010779
     atom   20 type  1   force =    -0.00147067    0.00000000    0.00147067
     atom   21 type  1   force =    -0.00147067    0.00000000   -0.00147067
     atom   22 type  1   force =     0.00010779   -0.00000000   -0.00010779
     atom   23 type  1   force =     0.00010779   -0.00000000    0.00010779
     atom   24 type  1   force =     0.00147067    0.00147067   -0.00000000
     atom   25 type  1   force =    -0.00010779   -0.00010779   -0.00000000
     atom   26 type  1   force =     0.00147067   -0.00147067   -0.00000000
     atom   27 type  1   force =    -0.00010779    0.00010779    0.00000000
     atom   28 type  1   force =    -0.00147067    0.00147067   -0.00000000
     atom   29 type  1   force =     0.00010779   -0.00010779   -0.00000000
     atom   30 type  1   force =    -0.00147067   -0.00147067   -0.00000000
     atom   31 type  1   force =     0.00010779    0.00010779    0.00000000
     The Hubbard contrib.    to forces
     atom    1 type  1   force =     0.00000000    0.00000000    0.00000000
     atom    2 type  1   force =     0.00000000    0.00000000    0.00000000
     atom    3 type  1   force =     0.00000000    0.00000000    0.00000000
     atom    4 type  1   force =     0.00000000    0.00000000    0.00000000
     atom    5 type  1   force =     0.00000000    0.00000000    0.00000000
     atom    6 type  1   force =     0.00000000    0.00000000    0.00000000
     atom    7 type  1   force =     0.00000000    0.00000000    0.00000000
     atom    8 type  1   force =     0.00000000    0.00000000    0.00000000
     atom    9 type  1   force =     0.00000000    0.00000000    0.00000000
     atom   10 type  1   force =     0.00000000    0.00000000    0.00000000
     atom   11 type  1   force =     0.00000000    0.00000000    0.00000000
     atom   12 type  1   force =     0.00000000    0.00000000    0.00000000
     atom   13 type  1   force =     0.00000000    0.00000000    0.00000000
     atom   14 type  1   force =     0.00000000    0.00000000    0.00000000
     atom   15 type  1   force =     0.00000000    0.00000000    0.00000000
     atom   16 type  1   force =     0.00000000    0.00000000    0.00000000
     atom   17 type  1   force =     0.00000000    0.00000000    0.00000000
     atom   18 type  1   force =     0.00000000    0.00000000    0.00000000
     atom   19 type  1   force =     0.00000000    0.00000000    0.00000000
     atom   20 type  1   force =     0.00000000    0.00000000    0.00000000
     atom   21 type  1   force =     0.00000000    0.00000000    0.00000000
     atom   22 type  1   force =     0.00000000    0.00000000    0.00000000
     atom   23 type  1   force =     0.00000000    0.00000000    0.00000000
     atom   24 type  1   force =     0.00000000    0.00000000    0.00000000
     atom   25 type  1   force =     0.00000000    0.00000000    0.00000000
     atom   26 type  1   force =     0.00000000    0.00000000    0.00000000
     atom   27 type  1   force =     0.00000000    0.00000000    0.00000000
     atom   28 type  1   force =     0.00000000    0.00000000    0.00000000
     atom   29 type  1   force =     0.00000000    0.00000000    0.00000000
     atom   30 type  1   force =     0.00000000    0.00000000    0.00000000
     atom   31 type  1   force =     0.00000000    0.00000000    0.00000000
     The SCF correction term to forces
     atom    1 type  1   force =    -0.00000000   -0.00000000    0.00000000
     atom    2 type  1   force =     0.00000000   -0.00000000   -0.00000000
     atom    3 type  1   force =     0.00000000    0.00000000    0.00000000
     atom    4 type  1   force =    -0.00000000    0.00000000   -0.00000000
     atom    5 type  1   force =     0.00000000    0.00000000    0.00000000
     atom    6 type  1   force =     0.00000000    0.00000000    0.00000000
     atom    7 type  1   force =    -0.00000000    0.00000000   -0.00000000
     atom    8 type  1   force =    -0.00000000   -0.00001685   -0.00001685
     atom    9 type  1   force =    -0.00000000   -0.00001685    0.00001685
     atom   10 type  1   force =     0.00000000    0.00001685   -0.00001685
     atom   11 type  1   force =     0.00000000    0.00001685    0.00001685
     atom   12 type  1   force =    -0.00000000   -0.00000796   -0.00000796
     atom   13 type  1   force =    -0.00000000   -0.00000796    0.00000796
     atom   14 type  1   force =    -0.00000000    0.00000796   -0.00000796
     atom   15 type  1   force =     0.00000000    0.00000796    0.00000796
     atom   16 type  1   force =    -0.00001685   -0.00000000   -0.00001685
     atom   17 type  1   force =    -0.00001685   -0.00000000    0.00001685
     atom   18 type  1   force =    -0.00000796    0.00000000   -0.00000796
     atom   19 type  1   force =    -0.00000796    0.00000000    0.00000796
     atom   20 type  1   force =     0.00001685    0.00000000   -0.00001685
     atom   21 type  1   force =     0.00001685    0.00000000    0.00001685
     atom   22 type  1   force =     0.00000796   -0.00000000   -0.00000796
     atom   23 type  1   force =     0.00000796    0.00000000    0.00000796
     atom   24 type  1   force =    -0.00001685   -0.00001685    0.00000000
     atom   25 type  1   force =    -0.00000796   -0.00000796    0.00000000
     atom   26 type  1   force =    -0.00001685    0.00001685   -0.00000000
     atom   27 type  1   force =    -0.00000796    0.00000796    0.00000000
     atom   28 type  1   force =     0.00001685   -0.00001685    0.00000000
     atom   29 type  1   force =     0.00000796   -0.00000796    0.00000000
     atom   30 type  1   force =     0.00001685    0.00001685    0.00000000
     atom   31 type  1   force =     0.00000796    0.00000796    0.00000000

     Total force =     0.033816     Total SCF correction =     0.000091


     Computing stress (Cartesian axis) and pressure

          total   stress  (Ry/bohr**3)                   (kbar)     P=       -5.07
  -0.00003446   0.00000000   0.00000000           -5.07        0.00        0.00
   0.00000000  -0.00003446   0.00000000            0.00       -5.07        0.00
   0.00000000   0.00000000  -0.00003446            0.00        0.00       -5.07

     kinetic stress (kbar)   1447.12      0.00      0.00
                                0.00   1447.12      0.00
                                0.00      0.00   1447.12

     local   stress (kbar)    475.78     -0.00      0.00
                               -0.00    475.78      0.00
                                0.00      0.00    475.78

     nonloc. stress (kbar)   1146.91      0.00      0.00
                                0.00   1146.91      0.00
                                0.00      0.00   1146.91

     hartree stress (kbar)     23.13     -0.00     -0.00
                               -0.00     23.13      0.00
                               -0.00      0.00     23.13

     exc-cor stress (kbar)    490.50      0.00     -0.00
                                0.00    490.50      0.00
                               -0.00      0.00    490.50

     corecor stress (kbar)  -1279.98     -0.00     -0.00
                               -0.00  -1279.98     -0.00
                               -0.00     -0.00  -1279.98

     ewald   stress (kbar)  -2308.52     -0.00     -0.00
                               -0.00  -2308.52     -0.00
                               -0.00     -0.00  -2308.52

     hubbard stress (kbar)      0.00      0.00      0.00
                                0.00      0.00      0.00
                                0.00      0.00      0.00

     DFT-D   stress (kbar)      0.00      0.00      0.00
                                0.00      0.00      0.00
                                0.00      0.00      0.00

     XDM     stress (kbar)      0.00      0.00      0.00
                                0.00      0.00      0.00
                                0.00      0.00      0.00

     dft-nl  stress (kbar)      0.00      0.00      0.00
                                0.00      0.00      0.00
                                0.00      0.00      0.00

     TS-vdW  stress (kbar)      0.00      0.00      0.00
                                0.00      0.00      0.00
                                0.00      0.00      0.00

     MDB     stress (kbar)      0.00      0.00      0.00
                                0.00      0.00      0.00
                                0.00      0.00      0.00

     3D-RISM stress (kbar)      0.00      0.00      0.00
                                0.00      0.00      0.00
                                0.00      0.00      0.00


     BFGS Geometry Optimization
     Energy error            =      0.0E+00 Ry
     Gradient error          =      6.9E-03 Ry/Bohr
     Cell gradient error     =      5.1E+00 kbar

     number of scf cycles    =   1
     number of bfgs steps    =   0

     enthalpy           new  =   -1193.9275347525 Ry

     new trust radius        =       0.0101923214 bohr
ibrav =      1
 celldm(1) =     15.16920491
Input lattice vectors:
     0.99913854     0.00000000     0.00000000
     0.00000000     0.99913854     0.00000000
     0.00000000     0.00000000     0.99913854
New lattice vectors in INITIAL alat:
     0.99913854     0.00000000     0.00000000
     0.00000000     0.99913854     0.00000000
     0.00000000     0.00000000     0.99913854
New lattice vectors in NEW alat (for information only):
     1.00000000     0.00000000     0.00000000
     0.00000000     1.00000000     0.00000000
     0.00000000     0.00000000     1.00000000
Discrepancy in bohr =     0.000000    0.000000    0.000000
     new conv_thr            =       0.0000000100 Ry

     new unit-cell volume =   3490.50652 a.u.^3 (   517.23970 Ang^3 )
     density =      2.68709 g/cm^3

CELL_PARAMETERS (alat= 15.18228391)
   0.999138535   0.000000000   0.000000000
   0.000000000   0.999138535   0.000000000
   0.000000000   0.000000000   0.999138535

ATOMIC_POSITIONS (crystal)
Al               0.0000000000        0.0000000000        0.5000000000
Al               0.0000000000        0.5000000000        0.0000000000
Al               0.0000000000        0.5000000000        0.5000000000
Al               0.5000000000        0.0000000000        0.0000000000
Al               0.5000000000        0.0000000000        0.5000000000
Al               0.5000000000        0.5000000000        0.0000000000
Al               0.5000000000        0.5000000000        0.5000000000
Al               0.0000000000        0.2495455491        0.2495455491
Al              -0.0000000000        0.2495455491        0.7504544509
Al               0.0000000000        0.7504544509        0.2495455491
Al              -0.0000000000        0.7504544509        0.7504544509
Al               0.5000000000        0.2500136448        0.2500136448
Al               0.5000000000        0.2500136448        0.7499863552
Al               0.5000000000        0.7499863552        0.2500136448
Al               0.5000000000        0.7499863552        0.7499863552
Al               0.2495455491        0.0000000000        0.2495455491
Al               0.2495455491       -0.0000000000        0.7504544509
Al               0.2500136448        0.5000000000        0.2500136448
Al               0.2500136448        0.5000000000        0.7499863552
Al               0.7504544509        0.0000000000        0.2495455491
Al               0.7504544509       -0.0000000000        0.7504544509
Al               0.7499863552        0.5000000000        0.2500136448
Al               0.7499863552        0.5000000000        0.7499863552
Al               0.2495455491        0.2495455491       -0.0000000000
Al               0.2500136448        0.2500136448        0.5000000000
Al               0.2495455491        0.7504544509        0.0000000000
Al               0.2500136448        0.7499863552        0.5000000000
Al               0.7504544509        0.2495455491        0.0000000000
Al               0.7499863552        0.2500136448        0.5000000000
Al               0.7504544509        0.7504544509        0.0000000000
Al               0.7499863552        0.7499863552        0.5000000000



     Writing config-only to output data dir ./temp/al-2x2x2-vacancy.save/ :
     XML data file
     NEW-OLD atomic charge density approx. for the potential

     total cpu time spent up to now is      340.2 secs

     Self-consistent Calculation

     iteration #  1     ecut=    40.00 Ry     beta= 0.70
     Davidson diagonalization with overlap

---- Real-time Memory Report at c_bands before calling an iterative solver
           839 MiB given to the printing process from OS
             0 MiB allocation reported by mallinfo(arena+hblkhd)
         20585 MiB available memory on the node where the printing process lives
------------------
     ethr =  1.00E-06,  avg # of iterations =  4.1

     Threshold (ethr) on eigenvalues was too large:
     Diagonalizing with lowered threshold

     Davidson diagonalization with overlap

---- Real-time Memory Report at c_bands before calling an iterative solver
           839 MiB given to the printing process from OS
             0 MiB allocation reported by mallinfo(arena+hblkhd)
         20427 MiB available memory on the node where the printing process lives
------------------
     ethr =  1.31E-08,  avg # of iterations =  9.1

     total cpu time spent up to now is      398.2 secs

     total energy              =   -1193.92882570 Ry
     estimated scf accuracy    <       0.00008833 Ry

     iteration #  2     ecut=    40.00 Ry     beta= 0.70
     Davidson diagonalization with overlap

---- Real-time Memory Report at c_bands before calling an iterative solver
           839 MiB given to the printing process from OS
             0 MiB allocation reported by mallinfo(arena+hblkhd)
         20263 MiB available memory on the node where the printing process lives
------------------
     ethr =  9.50E-08,  avg # of iterations =  5.5

     total cpu time spent up to now is      422.1 secs

     total energy              =   -1193.92879485 Ry
     estimated scf accuracy    <       0.00054401 Ry

     iteration #  3     ecut=    40.00 Ry     beta= 0.70
     Davidson diagonalization with overlap

---- Real-time Memory Report at c_bands before calling an iterative solver
           839 MiB given to the printing process from OS
             0 MiB allocation reported by mallinfo(arena+hblkhd)
         20259 MiB available memory on the node where the printing process lives
------------------
     ethr =  9.50E-08,  avg # of iterations =  4.4

     total cpu time spent up to now is      444.7 secs

     total energy              =   -1193.92887126 Ry
     estimated scf accuracy    <       0.00002904 Ry

     iteration #  4     ecut=    40.00 Ry     beta= 0.70
     Davidson diagonalization with overlap

---- Real-time Memory Report at c_bands before calling an iterative solver
           839 MiB given to the printing process from OS
             0 MiB allocation reported by mallinfo(arena+hblkhd)
         20243 MiB available memory on the node where the printing process lives
------------------
     ethr =  3.12E-08,  avg # of iterations =  2.2

     total cpu time spent up to now is      462.9 secs

     total energy              =   -1193.92887641 Ry
     estimated scf accuracy    <       0.00000021 Ry

     iteration #  5     ecut=    40.00 Ry     beta= 0.70
     Davidson diagonalization with overlap

---- Real-time Memory Report at c_bands before calling an iterative solver
[...]
     atom   17 type  1   force =     0.00487802   -0.00000000   -0.00487802
     atom   18 type  1   force =     0.00087386    0.00000000    0.00087386
     atom   19 type  1   force =     0.00087386    0.00000000   -0.00087386
     atom   20 type  1   force =    -0.00487802   -0.00000000    0.00487802
     atom   21 type  1   force =    -0.00487802    0.00000000   -0.00487802
     atom   22 type  1   force =    -0.00087386   -0.00000000    0.00087386
     atom   23 type  1   force =    -0.00087386    0.00000000   -0.00087386
     atom   24 type  1   force =     0.00487802    0.00487802    0.00000000
     atom   25 type  1   force =     0.00087386    0.00087386   -0.00000000
     atom   26 type  1   force =     0.00487802   -0.00487802    0.00000000
     atom   27 type  1   force =     0.00087386   -0.00087386   -0.00000000
     atom   28 type  1   force =    -0.00487802    0.00487802    0.00000000
     atom   29 type  1   force =    -0.00087386    0.00087386   -0.00000000
     atom   30 type  1   force =    -0.00487802   -0.00487802    0.00000000
     atom   31 type  1   force =    -0.00087386   -0.00087386    0.00000000
     The ionic contribution  to forces
     atom    1 type  1   force =     0.00000000    0.00000000    0.00000000
     atom    2 type  1   force =     0.00000000    0.00000000    0.00000000
     atom    3 type  1   force =     0.00000000    0.00000000    0.00000000
     atom    4 type  1   force =     0.00000000    0.00000000    0.00000000
     atom    5 type  1   force =     0.00000000    0.00000000    0.00000000
     atom    6 type  1   force =     0.00000000    0.00000000    0.00000000
     atom    7 type  1   force =     0.00000000    0.00000000    0.00000000
     atom    8 type  1   force =     0.00000000   -0.28050556   -0.28050556
     atom    9 type  1   force =     0.00000000   -0.28050556    0.28050556
     atom   10 type  1   force =     0.00000000    0.28050556   -0.28050556
     atom   11 type  1   force =     0.00000000    0.28050556    0.28050556
     atom   12 type  1   force =     0.00000000   -0.06333427   -0.06333427
     atom   13 type  1   force =     0.00000000   -0.06333427    0.06333427
     atom   14 type  1   force =     0.00000000    0.06333427   -0.06333427
     atom   15 type  1   force =    -0.00000000    0.06333427    0.06333427
     atom   16 type  1   force =    -0.28050556    0.00000000   -0.28050556
     atom   17 type  1   force =    -0.28050556    0.00000000    0.28050556
     atom   18 type  1   force =    -0.06333427    0.00000000   -0.06333427
     atom   19 type  1   force =    -0.06333427    0.00000000    0.06333427
     atom   20 type  1   force =     0.28050556    0.00000000   -0.28050556
     atom   21 type  1   force =     0.28050556    0.00000000    0.28050556
     atom   22 type  1   force =     0.06333427    0.00000000   -0.06333427
     atom   23 type  1   force =     0.06333427   -0.00000000    0.06333427
     atom   24 type  1   force =    -0.28050556   -0.28050556    0.00000000
     atom   25 type  1   force =    -0.06333427   -0.06333427    0.00000000
     atom   26 type  1   force =    -0.28050556    0.28050556    0.00000000
     atom   27 type  1   force =    -0.06333427    0.06333427    0.00000000
     atom   28 type  1   force =     0.28050556   -0.28050556    0.00000000
     atom   29 type  1   force =     0.06333427   -0.06333427    0.00000000
     atom   30 type  1   force =     0.28050556    0.28050556    0.00000000
     atom   31 type  1   force =     0.06333427    0.06333427   -0.00000000
     The local contribution  to forces
     atom    1 type  1   force =    -0.00000000   -0.00000000    0.00000000
     atom    2 type  1   force =    -0.00000000    0.00000000   -0.00000000
     atom    3 type  1   force =    -0.00000000   -0.00000000    0.00000000
     atom    4 type  1   force =     0.00000000    0.00000000   -0.00000000
     atom    5 type  1   force =     0.00000000   -0.00000000    0.00000000
     atom    6 type  1   force =     0.00000000   -0.00000000   -0.00000000
     atom    7 type  1   force =     0.00000000   -0.00000000    0.00000000
     atom    8 type  1   force =    -0.00000000    0.27562619    0.27562619
     atom    9 type  1   force =    -0.00000000    0.27562619   -0.27562619
     atom   10 type  1   force =    -0.00000000   -0.27562619    0.27562619
     atom   11 type  1   force =    -0.00000000   -0.27562619   -0.27562619
     atom   12 type  1   force =     0.00000000    0.06249730    0.06249730
     atom   13 type  1   force =    -0.00000000    0.06249730   -0.06249730
     atom   14 type  1   force =     0.00000000   -0.06249730    0.06249730
     atom   15 type  1   force =    -0.00000000   -0.06249730   -0.06249730
     atom   16 type  1   force =     0.27562619    0.00000000    0.27562619
     atom   17 type  1   force =     0.27562619    0.00000000   -0.27562619
     atom   18 type  1   force =     0.06249730    0.00000000    0.06249730
     atom   19 type  1   force =     0.06249730   -0.00000000   -0.06249730
     atom   20 type  1   force =    -0.27562619    0.00000000    0.27562619
     atom   21 type  1   force =    -0.27562619    0.00000000   -0.27562619
     atom   22 type  1   force =    -0.06249730   -0.00000000    0.06249730
     atom   23 type  1   force =    -0.06249730   -0.00000000   -0.06249730
     atom   24 type  1   force =     0.27562619    0.27562619   -0.00000000
     atom   25 type  1   force =     0.06249730    0.06249730    0.00000000
     atom   26 type  1   force =     0.27562619   -0.27562619   -0.00000000
     atom   27 type  1   force =     0.06249730   -0.06249730    0.00000000
     atom   28 type  1   force =    -0.27562619    0.27562619   -0.00000000
     atom   29 type  1   force =    -0.06249730    0.06249730    0.00000000
     atom   30 type  1   force =    -0.27562619   -0.27562619   -0.00000000
     atom   31 type  1   force =    -0.06249730   -0.06249730   -0.00000000
     The core correction contribution to forces
     atom    1 type  1   force =    -0.00000000   -0.00000000   -0.00000000
     atom    2 type  1   force =    -0.00000000   -0.00000000    0.00000000
     atom    3 type  1   force =    -0.00000000    0.00000000   -0.00000000
     atom    4 type  1   force =    -0.00000000    0.00000000    0.00000000
     atom    5 type  1   force =     0.00000000    0.00000000   -0.00000000
     atom    6 type  1   force =    -0.00000000    0.00000000    0.00000000
     atom    7 type  1   force =     0.00000000    0.00000000   -0.00000000
     atom    8 type  1   force =    -0.00000000   -0.00000477   -0.00000477
     atom    9 type  1   force =     0.00000000   -0.00000477    0.00000477
     atom   10 type  1   force =    -0.00000000    0.00000477   -0.00000477
     atom   11 type  1   force =     0.00000000    0.00000477    0.00000477
     atom   12 type  1   force =    -0.00000000   -0.00003187   -0.00003187
     atom   13 type  1   force =     0.00000000   -0.00003187    0.00003187
     atom   14 type  1   force =     0.00000000    0.00003187   -0.00003187
     atom   15 type  1   force =     0.00000000    0.00003187    0.00003187
     atom   16 type  1   force =    -0.00000477   -0.00000000   -0.00000477
     atom   17 type  1   force =    -0.00000477    0.00000000    0.00000477
     atom   18 type  1   force =    -0.00003187   -0.00000000   -0.00003187
     atom   19 type  1   force =    -0.00003187    0.00000000    0.00003187
     atom   20 type  1   force =     0.00000477   -0.00000000   -0.00000477
     atom   21 type  1   force =     0.00000477    0.00000000    0.00000477
     atom   22 type  1   force =     0.00003187    0.00000000   -0.00003187
     atom   23 type  1   force =     0.00003187    0.00000000    0.00003187
     atom   24 type  1   force =    -0.00000477   -0.00000477    0.00000000
     atom   25 type  1   force =    -0.00003187   -0.00003187   -0.00000000
     atom   26 type  1   force =    -0.00000477    0.00000477    0.00000000
     atom   27 type  1   force =    -0.00003187    0.00003187    0.00000000
     atom   28 type  1   force =     0.00000477   -0.00000477    0.00000000
     atom   29 type  1   force =     0.00003187   -0.00003187    0.00000000
     atom   30 type  1   force =     0.00000477    0.00000477    0.00000000
     atom   31 type  1   force =     0.00003187    0.00003187    0.00000000
     The Hubbard contrib.    to forces
     atom    1 type  1   force =     0.00000000    0.00000000    0.00000000
     atom    2 type  1   force =     0.00000000    0.00000000    0.00000000
     atom    3 type  1   force =     0.00000000    0.00000000    0.00000000
     atom    4 type  1   force =     0.00000000    0.00000000    0.00000000
     atom    5 type  1   force =     0.00000000    0.00000000    0.00000000
     atom    6 type  1   force =     0.00000000    0.00000000    0.00000000
     atom    7 type  1   force =     0.00000000    0.00000000    0.00000000
     atom    8 type  1   force =     0.00000000    0.00000000    0.00000000
     atom    9 type  1   force =     0.00000000    0.00000000    0.00000000
     atom   10 type  1   force =     0.00000000    0.00000000    0.00000000
     atom   11 type  1   force =     0.00000000    0.00000000    0.00000000
     atom   12 type  1   force =     0.00000000    0.00000000    0.00000000
     atom   13 type  1   force =     0.00000000    0.00000000    0.00000000
     atom   14 type  1   force =     0.00000000    0.00000000    0.00000000
     atom   15 type  1   force =     0.00000000    0.00000000    0.00000000
     atom   16 type  1   force =     0.00000000    0.00000000    0.00000000
     atom   17 type  1   force =     0.00000000    0.00000000    0.00000000
     atom   18 type  1   force =     0.00000000    0.00000000    0.00000000
     atom   19 type  1   force =     0.00000000    0.00000000    0.00000000
     atom   20 type  1   force =     0.00000000    0.00000000    0.00000000
     atom   21 type  1   force =     0.00000000    0.00000000    0.00000000
     atom   22 type  1   force =     0.00000000    0.00000000    0.00000000
     atom   23 type  1   force =     0.00000000    0.00000000    0.00000000
     atom   24 type  1   force =     0.00000000    0.00000000    0.00000000
     atom   25 type  1   force =     0.00000000    0.00000000    0.00000000
     atom   26 type  1   force =     0.00000000    0.00000000    0.00000000
     atom   27 type  1   force =     0.00000000    0.00000000    0.00000000
     atom   28 type  1   force =     0.00000000    0.00000000    0.00000000
     atom   29 type  1   force =     0.00000000    0.00000000    0.00000000
     atom   30 type  1   force =     0.00000000    0.00000000    0.00000000
     atom   31 type  1   force =     0.00000000    0.00000000    0.00000000
     The SCF correction term to forces
     atom    1 type  1   force =     0.00000000   -0.00000000    0.00000000
     atom    2 type  1   force =    -0.00000000   -0.00000000    0.00000000
     atom    3 type  1   force =     0.00000000    0.00000000    0.00000000
     atom    4 type  1   force =     0.00000000   -0.00000000   -0.00000000
     atom    5 type  1   force =     0.00000000   -0.00000000    0.00000000
     atom    6 type  1   force =     0.00000000   -0.00000000   -0.00000000
     atom    7 type  1   force =     0.00000000   -0.00000000    0.00000000
     atom    8 type  1   force =    -0.00000000    0.00000053    0.00000053
     atom    9 type  1   force =    -0.00000000    0.00000053   -0.00000053
     atom   10 type  1   force =    -0.00000000   -0.00000053    0.00000053
     atom   11 type  1   force =    -0.00000000   -0.00000053   -0.00000053
     atom   12 type  1   force =     0.00000000    0.00000063    0.00000063
     atom   13 type  1   force =     0.00000000    0.00000063   -0.00000063
     atom   14 type  1   force =     0.00000000   -0.00000063    0.00000063
     atom   15 type  1   force =     0.00000000   -0.00000063   -0.00000063
     atom   16 type  1   force =     0.00000053    0.00000000    0.00000053
     atom   17 type  1   force =     0.00000053    0.00000000   -0.00000053
     atom   18 type  1   force =     0.00000063   -0.00000000    0.00000063
     atom   19 type  1   force =     0.00000063   -0.00000000   -0.00000063
     atom   20 type  1   force =    -0.00000053    0.00000000    0.00000053
     atom   21 type  1   force =    -0.00000053    0.00000000   -0.00000053
     atom   22 type  1   force =    -0.00000063   -0.00000000    0.00000063
     atom   23 type  1   force =    -0.00000063   -0.00000000   -0.00000063
     atom   24 type  1   force =     0.00000053    0.00000053   -0.00000000
     atom   25 type  1   force =     0.00000063    0.00000063   -0.00000000
     atom   26 type  1   force =     0.00000053   -0.00000053    0.00000000
     atom   27 type  1   force =     0.00000063   -0.00000063    0.00000000
     atom   28 type  1   force =    -0.00000053    0.00000053   -0.00000000
     atom   29 type  1   force =    -0.00000063    0.00000063   -0.00000000
     atom   30 type  1   force =    -0.00000053   -0.00000053    0.00000000
     atom   31 type  1   force =    -0.00000063   -0.00000063   -0.00000000

     Total force =     0.000039     Total SCF correction =     0.000004
     SCF correction compared to forces is large: reduce conv_thr to get better values


     Computing stress (Cartesian axis) and pressure

          total   stress  (Ry/bohr**3)                   (kbar)     P=       -0.01
  -0.00000007   0.00000000   0.00000000           -0.01        0.00        0.00
   0.00000000  -0.00000007   0.00000000            0.00       -0.01        0.00
   0.00000000   0.00000000  -0.00000007            0.00        0.00       -0.01

     kinetic stress (kbar)   1466.05      0.00      0.00
                                0.00   1466.05      0.00
                                0.00      0.00   1466.05

     local   stress (kbar)    499.13     -0.00     -0.00
                               -0.00    499.13     -0.00
                               -0.00     -0.00    499.13

     nonloc. stress (kbar)   1158.87      0.00      0.00
                                0.00   1158.87      0.00
                                0.00      0.00   1158.87

     hartree stress (kbar)     17.12      0.00      0.00
                                0.00     17.12     -0.00
                                0.00     -0.00     17.12

     exc-cor stress (kbar)    493.63     -0.00     -0.00
                               -0.00    493.63     -0.00
                               -0.00     -0.00    493.63

     corecor stress (kbar)  -1291.83      0.00      0.00
                                0.00  -1291.83      0.00
                                0.00      0.00  -1291.83

     ewald   stress (kbar)  -2342.97     -0.00     -0.00
                               -0.00  -2342.97      0.00
                               -0.00      0.00  -2342.97

     hubbard stress (kbar)      0.00      0.00      0.00
                                0.00      0.00      0.00
                                0.00      0.00      0.00

     DFT-D   stress (kbar)      0.00      0.00      0.00
                                0.00      0.00      0.00
                                0.00      0.00      0.00

     XDM     stress (kbar)      0.00      0.00      0.00
                                0.00      0.00      0.00
                                0.00      0.00      0.00

     dft-nl  stress (kbar)      0.00      0.00      0.00
                                0.00      0.00      0.00
                                0.00      0.00      0.00

     TS-vdW  stress (kbar)      0.00      0.00      0.00
                                0.00      0.00      0.00
                                0.00      0.00      0.00

     MDB     stress (kbar)      0.00      0.00      0.00
                                0.00      0.00      0.00
                                0.00      0.00      0.00

     3D-RISM stress (kbar)      0.00      0.00      0.00
                                0.00      0.00      0.00
                                0.00      0.00      0.00


     Writing all to output data dir ./temp/al-2x2x2-vacancy.save/ :
     XML data file, charge density, pseudopotentials, collected wavefunctions

     init_run     :     29.94s CPU     30.21s WALL (       2 calls)
     electrons    :   3056.06s CPU   3068.75s WALL (      13 calls)
     update_pot   :     10.47s CPU     10.73s WALL (      11 calls)
     forces       :    113.38s CPU    115.09s WALL (      13 calls)
     stress       :    284.72s CPU    288.60s WALL (      13 calls)

     Called by init_run:
     wfcinit      :     19.86s CPU     19.96s WALL (       2 calls)
     wfcinit:atom :      0.03s CPU      0.03s WALL (       2 calls)
     wfcinit:wfcr :     19.65s CPU     19.67s WALL (       2 calls)
     potinit      :      2.50s CPU      2.57s WALL (       2 calls)
     hinit0       :      0.67s CPU      0.69s WALL (       2 calls)

     Called by electrons:
     c_bands      :   2556.32s CPU   2558.93s WALL (     124 calls)
     sum_band     :    321.76s CPU    326.42s WALL (     124 calls)
     v_of_rho     :     36.19s CPU     38.35s WALL (     128 calls)
     v_h          :      2.06s CPU      2.40s WALL (     128 calls)
     v_xc         :     41.07s CPU     43.73s WALL (     154 calls)
     newd         :     83.68s CPU     87.48s WALL (     128 calls)
     PAW_pot      :     72.52s CPU     72.54s WALL (     139 calls)
     mix_rho      :      3.24s CPU      3.27s WALL (     124 calls)

     Called by c_bands:
     init_us_2    :     17.80s CPU     17.91s WALL (     261 calls)
     cegterg      :   1979.48s CPU   1981.96s WALL (     124 calls)

     Called by sum_band:
     sum_band:wei :      0.12s CPU      0.12s WALL (     124 calls)
     sum_band:loo :    197.77s CPU    197.92s WALL (     124 calls)
     sum_band:buf :      0.00s CPU      0.00s WALL (     124 calls)
     sum_band:ini :      8.53s CPU      8.57s WALL (     124 calls)
     sum_band:cal :    160.27s CPU    160.32s WALL (     135 calls)
     sum_band:bec :      0.09s CPU      0.09s WALL (     135 calls)
     addusdens    :     84.01s CPU     88.31s WALL (     124 calls)
                                        0.00s GPU  (     124 calls)
     addusd:skk   :      0.37s CPU      0.48s WALL (     124 calls)
                                        0.00s GPU  (     124 calls)

     Called by *egterg:
     cdiaghg      :      3.66s CPU      3.67s WALL (     854 calls)
     cegterg:over :    110.88s CPU    110.91s WALL (     750 calls)
     cegterg:upda :     74.17s CPU     74.21s WALL (     750 calls)
     cegterg:last :    179.97s CPU    180.01s WALL (     363 calls)
     h_psi        :   1112.87s CPU   1114.00s WALL (     876 calls)
     s_psi        :    480.49s CPU    480.59s WALL (     876 calls)
     g_psi        :      1.17s CPU      1.17s WALL (     750 calls)

     Called by h_psi:
     h_psi:calbec :    487.33s CPU    487.47s WALL (     876 calls)
     vloc_psi     :    143.76s CPU    144.03s WALL (     876 calls)
     add_vuspsi   :    480.78s CPU    480.92s WALL (     876 calls)

     General routines
     calbec       :    722.75s CPU    722.96s WALL (    1076 calls)
     fft          :     18.61s CPU     18.63s WALL (    1983 calls)
     ffts         :      0.92s CPU      0.92s WALL (     252 calls)
     fftw         :    125.88s CPU    126.07s WALL (   52674 calls)
     interpolate  :      2.93s CPU      2.93s WALL (     128 calls)

     Parallel routines

     PAW routines
     PAW_pot      :     72.52s CPU     72.54s WALL (     139 calls)
     PAW_symme    :      0.29s CPU      0.30s WALL (     263 calls)

     PWSCF        :  58m43.41s CPU  59m 2.63s WALL


   This run was terminated on:  15:57:49  19Dec2025            

=------------------------------------------------------------------------------=
   JOB DONE.
=------------------------------------------------------------------------------=
