
     Program PWSCF v.7.3.1 starts on  4Jan2026 at 17:51:47 

     This program is part of the open-source Quantum ESPRESSO suite
     for quantum simulation of materials; please cite
         "P. Giannozzi et al., J. Phys.:Condens. Matter 21 395502 (2009);
         "P. Giannozzi et al., J. Phys.:Condens. Matter 29 465901 (2017);
         "P. Giannozzi et al., J. Chem. Phys. 152 154105 (2020);
          URL http://www.quantum-espresso.org", 
     in publications or presentations arising from this work. More details at
     http://www.quantum-espresso.org/quote

     Parallel version (MPI), running on    14 processors

     MPI processes distributed on     1 nodes
     19277 MiB available memory on the printing compute node when the environment starts

     Reading input from al-2x2x2-vacancy.vc-relax.pw.in

     Current dimensions of program PWSCF are:
     Max number of different atomic species (ntypx) = 10
     Max number of k-points (npk) = 120000
     Max angular momentum in pseudopotentials (lmaxx) =  4
     file Al.pbesol-n-kjpaw_psl.1.0.0.UPF: wavefunction(s)  3S 3P renormalized

     K-points division:     npool     =       7
     R & G space division:  proc/nbgrp/npool/nimage =       2
     Subspace diagonalization in iterative solution of the eigenvalue problem:
     a serial algorithm will be used


     Parallelization info
     --------------------
     sticks:   dense  smooth     PW     G-vecs:    dense   smooth      PW
     Min        2938    1470    396               169136    59912    8534
     Max        2939    1471    397               169139    59913    8537
     Sum        5877    2941    793               338275   119825   17071

     Using Slab Decomposition



     bravais-lattice index     =            1
     lattice parameter (alat)  =      15.1823  a.u.
     unit-cell volume          =    3499.5429 (a.u.)^3
     number of atoms/cell      =           31
     number of atomic types    =            1
     number of electrons       =        93.00
     number of Kohn-Sham states=           56
     kinetic-energy cutoff     =      40.0000  Ry
     charge density cutoff     =     320.0000  Ry
     scf convergence threshold =      1.0E-09
     mixing beta               =       0.7000
     number of iterations used =            8  plain     mixing
     energy convergence thresh.=      1.0E-05
     force convergence thresh. =      1.0E-04
     press convergence thresh. =      5.0E-02
     Exchange-correlation= SLA  PW   PSX  PSC
                           (   1   4  10   8   0   0   0)
     nstep                     =           50


     celldm(1)=  15.182284  celldm(2)=   0.000000  celldm(3)=   0.000000
     celldm(4)=   0.000000  celldm(5)=   0.000000  celldm(6)=   0.000000

     crystal axes: (cart. coord. in units of alat)
               a(1) = (   1.000000   0.000000   0.000000 )  
               a(2) = (   0.000000   1.000000   0.000000 )  
               a(3) = (   0.000000   0.000000   1.000000 )  

     reciprocal axes: (cart. coord. in units 2 pi/alat)
               b(1) = (  1.000000  0.000000  0.000000 )  
               b(2) = (  0.000000  1.000000  0.000000 )  
               b(3) = (  0.000000  0.000000  1.000000 )  


     PseudoPot. # 1 for Al read from file:
     ./../Al.pbesol-n-kjpaw_psl.1.0.0.UPF
     MD5 check sum: fed048700f41f568201cacb08e201ac8
     Pseudo is Projector augmented-wave + core cor, Zval =  3.0
     Generated using &quot;atomic&quot; code by A. Dal Corso  v.6.3
     Shape of augmentation charge: PSQ
     Using radial grid of 1135 points,  6 beta functions with: 
                l(1) =   0
                l(2) =   0
                l(3) =   1
                l(4) =   1
                l(5) =   2
                l(6) =   2
     Q(r) pseudized with 0 coefficients 


     atomic species   valence    mass     pseudopotential
     Al                3.00    27.00000     Al( 1.00)

     48 Sym. Ops., with inversion, found


                                    s                        frac. trans.

      isym =  1     identity                                     

 cryst.   s( 1) = (     1          0          0      )
                  (     0          1          0      )
                  (     0          0          1      )

 cart.    s( 1) = (  1.0000000  0.0000000  0.0000000 )
                  (  0.0000000  1.0000000  0.0000000 )
                  (  0.0000000  0.0000000  1.0000000 )


      isym =  2     180 deg rotation - cart. axis [0,0,1]        

 cryst.   s( 2) = (    -1          0          0      )
                  (     0         -1          0      )
                  (     0          0          1      )

 cart.    s( 2) = ( -1.0000000  0.0000000  0.0000000 )
                  (  0.0000000 -1.0000000  0.0000000 )
                  (  0.0000000  0.0000000  1.0000000 )


      isym =  3     180 deg rotation - cart. axis [0,1,0]        

 cryst.   s( 3) = (    -1          0          0      )
                  (     0          1          0      )
                  (     0          0         -1      )

 cart.    s( 3) = ( -1.0000000  0.0000000  0.0000000 )
                  (  0.0000000  1.0000000  0.0000000 )
                  (  0.0000000  0.0000000 -1.0000000 )


      isym =  4     180 deg rotation - cart. axis [1,0,0]        

 cryst.   s( 4) = (     1          0          0      )
                  (     0         -1          0      )
                  (     0          0         -1      )

 cart.    s( 4) = (  1.0000000  0.0000000  0.0000000 )
                  (  0.0000000 -1.0000000  0.0000000 )
                  (  0.0000000  0.0000000 -1.0000000 )


      isym =  5     180 deg rotation - cart. axis [1,1,0]        

 cryst.   s( 5) = (     0          1          0      )
                  (     1          0          0      )
                  (     0          0         -1      )

 cart.    s( 5) = (  0.0000000  1.0000000  0.0000000 )
                  (  1.0000000  0.0000000  0.0000000 )
                  (  0.0000000  0.0000000 -1.0000000 )


      isym =  6     180 deg rotation - cart. axis [1,-1,0]       

 cryst.   s( 6) = (     0         -1          0      )
                  (    -1          0          0      )
                  (     0          0         -1      )

 cart.    s( 6) = (  0.0000000 -1.0000000  0.0000000 )
                  ( -1.0000000  0.0000000  0.0000000 )
                  (  0.0000000  0.0000000 -1.0000000 )


      isym =  7      90 deg rotation - cart. axis [0,0,-1]       

 cryst.   s( 7) = (     0         -1          0      )
                  (     1          0          0      )
                  (     0          0          1      )

 cart.    s( 7) = (  0.0000000  1.0000000  0.0000000 )
                  ( -1.0000000  0.0000000  0.0000000 )
                  (  0.0000000  0.0000000  1.0000000 )


      isym =  8      90 deg rotation - cart. axis [0,0,1]        

 cryst.   s( 8) = (     0          1          0      )
                  (    -1          0          0      )
                  (     0          0          1      )

 cart.    s( 8) = (  0.0000000 -1.0000000  0.0000000 )
                  (  1.0000000  0.0000000  0.0000000 )
                  (  0.0000000  0.0000000  1.0000000 )


      isym =  9     180 deg rotation - cart. axis [1,0,1]        

 cryst.   s( 9) = (     0          0          1      )
                  (     0         -1          0      )
                  (     1          0          0      )

 cart.    s( 9) = (  0.0000000  0.0000000  1.0000000 )
                  (  0.0000000 -1.0000000  0.0000000 )
                  (  1.0000000  0.0000000  0.0000000 )


      isym = 10     180 deg rotation - cart. axis [-1,0,1]       

 cryst.   s(10) = (     0          0         -1      )
                  (     0         -1          0      )
                  (    -1          0          0      )

 cart.    s(10) = (  0.0000000  0.0000000 -1.0000000 )
                  (  0.0000000 -1.0000000  0.0000000 )
                  ( -1.0000000  0.0000000  0.0000000 )


      isym = 11      90 deg rotation - cart. axis [0,1,0]        

 cryst.   s(11) = (     0          0         -1      )
                  (     0          1          0      )
                  (     1          0          0      )

 cart.    s(11) = (  0.0000000  0.0000000  1.0000000 )
                  (  0.0000000  1.0000000  0.0000000 )
                  ( -1.0000000  0.0000000  0.0000000 )


      isym = 12      90 deg rotation - cart. axis [0,-1,0]       

 cryst.   s(12) = (     0          0          1      )
                  (     0          1          0      )
                  (    -1          0          0      )

 cart.    s(12) = (  0.0000000  0.0000000 -1.0000000 )
                  (  0.0000000  1.0000000  0.0000000 )
                  (  1.0000000  0.0000000  0.0000000 )


      isym = 13     180 deg rotation - cart. axis [0,1,1]        

 cryst.   s(13) = (    -1          0          0      )
                  (     0          0          1      )
                  (     0          1          0      )

 cart.    s(13) = ( -1.0000000  0.0000000  0.0000000 )
                  (  0.0000000  0.0000000  1.0000000 )
                  (  0.0000000  1.0000000  0.0000000 )


      isym = 14     180 deg rotation - cart. axis [0,1,-1]       

 cryst.   s(14) = (    -1          0          0      )
                  (     0          0         -1      )
                  (     0         -1          0      )

 cart.    s(14) = ( -1.0000000  0.0000000  0.0000000 )
                  (  0.0000000  0.0000000 -1.0000000 )
                  (  0.0000000 -1.0000000  0.0000000 )


      isym = 15      90 deg rotation - cart. axis [-1,0,0]       

 cryst.   s(15) = (     1          0          0      )
                  (     0          0         -1      )
                  (     0          1          0      )

 cart.    s(15) = (  1.0000000  0.0000000  0.0000000 )
                  (  0.0000000  0.0000000  1.0000000 )
                  (  0.0000000 -1.0000000  0.0000000 )


      isym = 16      90 deg rotation - cart. axis [1,0,0]        

 cryst.   s(16) = (     1          0          0      )
                  (     0          0          1      )
                  (     0         -1          0      )

 cart.    s(16) = (  1.0000000  0.0000000  0.0000000 )
                  (  0.0000000  0.0000000 -1.0000000 )
                  (  0.0000000  1.0000000  0.0000000 )


      isym = 17     120 deg rotation - cart. axis [-1,-1,-1]     

 cryst.   s(17) = (     0          0          1      )
                  (     1          0          0      )
                  (     0          1          0      )

 cart.    s(17) = (  0.0000000  1.0000000  0.0000000 )
                  (  0.0000000  0.0000000  1.0000000 )
                  (  1.0000000  0.0000000  0.0000000 )


      isym = 18     120 deg rotation - cart. axis [-1,1,1]       

 cryst.   s(18) = (     0          0         -1      )
                  (    -1          0          0      )
                  (     0          1          0      )

 cart.    s(18) = (  0.0000000 -1.0000000  0.0000000 )
                  (  0.0000000  0.0000000  1.0000000 )
                  ( -1.0000000  0.0000000  0.0000000 )


      isym = 19     120 deg rotation - cart. axis [1,1,-1]       

 cryst.   s(19) = (     0          0         -1      )
                  (     1          0          0      )
                  (     0         -1          0      )

 cart.    s(19) = (  0.0000000  1.0000000  0.0000000 )
                  (  0.0000000  0.0000000 -1.0000000 )
                  ( -1.0000000  0.0000000  0.0000000 )


      isym = 20     120 deg rotation - cart. axis [1,-1,1]       

 cryst.   s(20) = (     0          0          1      )
                  (    -1          0          0      )
                  (     0         -1          0      )

 cart.    s(20) = (  0.0000000 -1.0000000  0.0000000 )
                  (  0.0000000  0.0000000 -1.0000000 )
                  (  1.0000000  0.0000000  0.0000000 )


      isym = 21     120 deg rotation - cart. axis [1,1,1]        

 cryst.   s(21) = (     0          1          0      )
                  (     0          0          1      )
                  (     1          0          0      )

 cart.    s(21) = (  0.0000000  0.0000000  1.0000000 )
                  (  1.0000000  0.0000000  0.0000000 )
                  (  0.0000000  1.0000000  0.0000000 )


      isym = 22     120 deg rotation - cart. axis [-1,1,-1]      

 cryst.   s(22) = (     0         -1          0      )
                  (     0          0         -1      )
                  (     1          0          0      )

 cart.    s(22) = (  0.0000000  0.0000000  1.0000000 )
                  ( -1.0000000  0.0000000  0.0000000 )
                  (  0.0000000 -1.0000000  0.0000000 )


      isym = 23     120 deg rotation - cart. axis [1,-1,-1]      

 cryst.   s(23) = (     0         -1          0      )
                  (     0          0          1      )
                  (    -1          0          0      )

 cart.    s(23) = (  0.0000000  0.0000000 -1.0000000 )
                  ( -1.0000000  0.0000000  0.0000000 )
                  (  0.0000000  1.0000000  0.0000000 )


      isym = 24     120 deg rotation - cart. axis [-1,-1,1]      

 cryst.   s(24) = (     0          1          0      )
                  (     0          0         -1      )
                  (    -1          0          0      )

 cart.    s(24) = (  0.0000000  0.0000000 -1.0000000 )
                  (  1.0000000  0.0000000  0.0000000 )
                  (  0.0000000 -1.0000000  0.0000000 )


      isym = 25     inversion                                    

 cryst.   s(25) = (    -1          0          0      )
                  (     0         -1          0      )
                  (     0          0         -1      )

 cart.    s(25) = ( -1.0000000  0.0000000  0.0000000 )
                  (  0.0000000 -1.0000000  0.0000000 )
                  (  0.0000000  0.0000000 -1.0000000 )


      isym = 26     inv. 180 deg rotation - cart. axis [0,0,1]   

 cryst.   s(26) = (     1          0          0      )
                  (     0          1          0      )
                  (     0          0         -1      )

 cart.    s(26) = (  1.0000000  0.0000000  0.0000000 )
                  (  0.0000000  1.0000000  0.0000000 )
                  (  0.0000000  0.0000000 -1.0000000 )


      isym = 27     inv. 180 deg rotation - cart. axis [0,1,0]   

 cryst.   s(27) = (     1          0          0      )
                  (     0         -1          0      )
                  (     0          0          1      )

 cart.    s(27) = (  1.0000000  0.0000000  0.0000000 )
                  (  0.0000000 -1.0000000  0.0000000 )
                  (  0.0000000  0.0000000  1.0000000 )


      isym = 28     inv. 180 deg rotation - cart. axis [1,0,0]   

 cryst.   s(28) = (    -1          0          0      )
                  (     0          1          0      )
                  (     0          0          1      )

 cart.    s(28) = ( -1.0000000  0.0000000  0.0000000 )
                  (  0.0000000  1.0000000  0.0000000 )
                  (  0.0000000  0.0000000  1.0000000 )


      isym = 29     inv. 180 deg rotation - cart. axis [1,1,0]   

 cryst.   s(29) = (     0         -1          0      )
                  (    -1          0          0      )
                  (     0          0          1      )

 cart.    s(29) = (  0.0000000 -1.0000000  0.0000000 )
                  ( -1.0000000  0.0000000  0.0000000 )
                  (  0.0000000  0.0000000  1.0000000 )


      isym = 30     inv. 180 deg rotation - cart. axis [1,-1,0]  

 cryst.   s(30) = (     0          1          0      )
                  (     1          0          0      )
                  (     0          0          1      )

 cart.    s(30) = (  0.0000000  1.0000000  0.0000000 )
                  (  1.0000000  0.0000000  0.0000000 )
                  (  0.0000000  0.0000000  1.0000000 )


      isym = 31     inv.  90 deg rotation - cart. axis [0,0,-1]  

 cryst.   s(31) = (     0          1          0      )
                  (    -1          0          0      )
                  (     0          0         -1      )

 cart.    s(31) = (  0.0000000 -1.0000000  0.0000000 )
                  (  1.0000000  0.0000000  0.0000000 )
                  (  0.0000000  0.0000000 -1.0000000 )


      isym = 32     inv.  90 deg rotation - cart. axis [0,0,1]   

 cryst.   s(32) = (     0         -1          0      )
                  (     1          0          0      )
                  (     0          0         -1      )

 cart.    s(32) = (  0.0000000  1.0000000  0.0000000 )
                  ( -1.0000000  0.0000000  0.0000000 )
                  (  0.0000000  0.0000000 -1.0000000 )


      isym = 33     inv. 180 deg rotation - cart. axis [1,0,1]   

 cryst.   s(33) = (     0          0         -1      )
                  (     0          1          0      )
                  (    -1          0          0      )

 cart.    s(33) = (  0.0000000  0.0000000 -1.0000000 )
                  (  0.0000000  1.0000000  0.0000000 )
                  ( -1.0000000  0.0000000  0.0000000 )


      isym = 34     inv. 180 deg rotation - cart. axis [-1,0,1]  

 cryst.   s(34) = (     0          0          1      )
                  (     0          1          0      )
                  (     1          0          0      )

 cart.    s(34) = (  0.0000000  0.0000000  1.0000000 )
                  (  0.0000000  1.0000000  0.0000000 )
                  (  1.0000000  0.0000000  0.0000000 )


      isym = 35     inv.  90 deg rotation - cart. axis [0,1,0]   

 cryst.   s(35) = (     0          0          1      )
                  (     0         -1          0      )
                  (    -1          0          0      )

 cart.    s(35) = (  0.0000000  0.0000000 -1.0000000 )
                  (  0.0000000 -1.0000000  0.0000000 )
                  (  1.0000000  0.0000000  0.0000000 )


      isym = 36     inv.  90 deg rotation - cart. axis [0,-1,0]  

 cryst.   s(36) = (     0          0         -1      )
                  (     0         -1          0      )
                  (     1          0          0      )

 cart.    s(36) = (  0.0000000  0.0000000  1.0000000 )
                  (  0.0000000 -1.0000000  0.0000000 )
                  ( -1.0000000  0.0000000  0.0000000 )


      isym = 37     inv. 180 deg rotation - cart. axis [0,1,1]   

 cryst.   s(37) = (     1          0          0      )
                  (     0          0         -1      )
                  (     0         -1          0      )

 cart.    s(37) = (  1.0000000  0.0000000  0.0000000 )
                  (  0.0000000  0.0000000 -1.0000000 )
                  (  0.0000000 -1.0000000  0.0000000 )


      isym = 38     inv. 180 deg rotation - cart. axis [0,1,-1]  

 cryst.   s(38) = (     1          0          0      )
                  (     0          0          1      )
                  (     0          1          0      )

 cart.    s(38) = (  1.0000000  0.0000000  0.0000000 )
                  (  0.0000000  0.0000000  1.0000000 )
                  (  0.0000000  1.0000000  0.0000000 )


      isym = 39     inv.  90 deg rotation - cart. axis [-1,0,0]  

 cryst.   s(39) = (    -1          0          0      )
                  (     0          0          1      )
                  (     0         -1          0      )

 cart.    s(39) = ( -1.0000000  0.0000000  0.0000000 )
                  (  0.0000000  0.0000000 -1.0000000 )
                  (  0.0000000  1.0000000  0.0000000 )


      isym = 40     inv.  90 deg rotation - cart. axis [1,0,0]   

 cryst.   s(40) = (    -1          0          0      )
                  (     0          0         -1      )
                  (     0          1          0      )

 cart.    s(40) = ( -1.0000000  0.0000000  0.0000000 )
                  (  0.0000000  0.0000000  1.0000000 )
                  (  0.0000000 -1.0000000  0.0000000 )


      isym = 41     inv. 120 deg rotation - cart. axis [-1,-1,-1]

 cryst.   s(41) = (     0          0         -1      )
                  (    -1          0          0      )
                  (     0         -1          0      )

 cart.    s(41) = (  0.0000000 -1.0000000  0.0000000 )
                  (  0.0000000  0.0000000 -1.0000000 )
                  ( -1.0000000  0.0000000  0.0000000 )


      isym = 42     inv. 120 deg rotation - cart. axis [-1,1,1]  

 cryst.   s(42) = (     0          0          1      )
                  (     1          0          0      )
                  (     0         -1          0      )

 cart.    s(42) = (  0.0000000  1.0000000  0.0000000 )
                  (  0.0000000  0.0000000 -1.0000000 )
                  (  1.0000000  0.0000000  0.0000000 )


      isym = 43     inv. 120 deg rotation - cart. axis [1,1,-1]  

 cryst.   s(43) = (     0          0          1      )
                  (    -1          0          0      )
                  (     0          1          0      )

 cart.    s(43) = (  0.0000000 -1.0000000  0.0000000 )
                  (  0.0000000  0.0000000  1.0000000 )
                  (  1.0000000  0.0000000  0.0000000 )


      isym = 44     inv. 120 deg rotation - cart. axis [1,-1,1]  

 cryst.   s(44) = (     0          0         -1      )
                  (     1          0          0      )
                  (     0          1          0      )

 cart.    s(44) = (  0.0000000  1.0000000  0.0000000 )
                  (  0.0000000  0.0000000  1.0000000 )
                  ( -1.0000000  0.0000000  0.0000000 )


      isym = 45     inv. 120 deg rotation - cart. axis [1,1,1]   

 cryst.   s(45) = (     0         -1          0      )
                  (     0          0         -1      )
                  (    -1          0          0      )

 cart.    s(45) = (  0.0000000  0.0000000 -1.0000000 )
                  ( -1.0000000  0.0000000  0.0000000 )
                  (  0.0000000 -1.0000000  0.0000000 )


      isym = 46     inv. 120 deg rotation - cart. axis [-1,1,-1] 

 cryst.   s(46) = (     0          1          0      )
                  (     0          0          1      )
                  (    -1          0          0      )

 cart.    s(46) = (  0.0000000  0.0000000 -1.0000000 )
                  (  1.0000000  0.0000000  0.0000000 )
                  (  0.0000000  1.0000000  0.0000000 )


      isym = 47     inv. 120 deg rotation - cart. axis [1,-1,-1] 

 cryst.   s(47) = (     0          1          0      )
                  (     0          0         -1      )
                  (     1          0          0      )

 cart.    s(47) = (  0.0000000  0.0000000  1.0000000 )
                  (  1.0000000  0.0000000  0.0000000 )
                  (  0.0000000 -1.0000000  0.0000000 )


      isym = 48     inv. 120 deg rotation - cart. axis [-1,-1,1] 

 cryst.   s(48) = (     0         -1          0      )
                  (     0          0          1      )
                  (     1          0          0      )

 cart.    s(48) = (  0.0000000  0.0000000  1.0000000 )
                  ( -1.0000000  0.0000000  0.0000000 )
                  (  0.0000000  1.0000000  0.0000000 )


     point group O_h (m-3m) 
     there are 10 classes
     the character table:

       E     8C3   3C2   6C4   6C2'  i     8S6   3s_h  6S4   6s_d 
A_1g   1.00  1.00  1.00  1.00  1.00  1.00  1.00  1.00  1.00  1.00
A_2g   1.00  1.00  1.00 -1.00 -1.00  1.00  1.00  1.00 -1.00 -1.00
E_g    2.00 -1.00  2.00  0.00  0.00  2.00 -1.00  2.00  0.00  0.00
T_1g   3.00  0.00 -1.00  1.00 -1.00  3.00  0.00 -1.00  1.00 -1.00
T_2g   3.00  0.00 -1.00 -1.00  1.00  3.00  0.00 -1.00 -1.00  1.00
A_1u   1.00  1.00  1.00  1.00  1.00 -1.00 -1.00 -1.00 -1.00 -1.00
A_2u   1.00  1.00  1.00 -1.00 -1.00 -1.00 -1.00 -1.00  1.00  1.00
E_u    2.00 -1.00  2.00  0.00  0.00 -2.00  1.00 -2.00  0.00  0.00
T_1u   3.00  0.00 -1.00  1.00 -1.00 -3.00  0.00  1.00 -1.00  1.00
T_2u   3.00  0.00 -1.00 -1.00  1.00 -3.00  0.00  1.00  1.00 -1.00

     the symmetry operations in each class and the name of the first element:

     E        1
          identity                                               
     8C3     17   19   20   18   24   21   22   23
          120 deg rotation - cart. axis [-1,-1,-1]               
     3C2      2    4    3
          180 deg rotation - cart. axis [0,0,1]                  
     6C4      7    8   15   16   12   11
           90 deg rotation - cart. axis [0,0,-1]                 
     6C2'     5    6   14   13   10    9
          180 deg rotation - cart. axis [1,1,0]                  
     i       25
          inversion                                              
     8S6     41   43   44   42   48   45   46   47
          inv. 120 deg rotation - cart. axis [-1,-1,-1]          
     3s_h    26   28   27
          inv. 180 deg rotation - cart. axis [0,0,1]             
     6S4     31   32   39   40   36   35
          inv.  90 deg rotation - cart. axis [0,0,-1]            
     6s_d    29   30   38   37   34   33
          inv. 180 deg rotation - cart. axis [1,1,0]             

   Cartesian axes

     site n.     atom                  positions (alat units)
         1        Al     tau(   1) = (   0.0000000   0.0000000   0.5000000  )
         2        Al     tau(   2) = (   0.0000000   0.5000000   0.0000000  )
         3        Al     tau(   3) = (   0.0000000   0.5000000   0.5000000  )
         4        Al     tau(   4) = (   0.5000000   0.0000000   0.0000000  )
         5        Al     tau(   5) = (   0.5000000   0.0000000   0.5000000  )
         6        Al     tau(   6) = (   0.5000000   0.5000000   0.0000000  )
         7        Al     tau(   7) = (   0.5000000   0.5000000   0.5000000  )
         8        Al     tau(   8) = (   0.0000000   0.2500000   0.2500000  )
         9        Al     tau(   9) = (   0.0000000   0.2500000   0.7500000  )
        10        Al     tau(  10) = (   0.0000000   0.7500000   0.2500000  )
        11        Al     tau(  11) = (   0.0000000   0.7500000   0.7500000  )
        12        Al     tau(  12) = (   0.5000000   0.2500000   0.2500000  )
        13        Al     tau(  13) = (   0.5000000   0.2500000   0.7500000  )
        14        Al     tau(  14) = (   0.5000000   0.7500000   0.2500000  )
        15        Al     tau(  15) = (   0.5000000   0.7500000   0.7500000  )
        16        Al     tau(  16) = (   0.2500000   0.0000000   0.2500000  )
        17        Al     tau(  17) = (   0.2500000   0.0000000   0.7500000  )
        18        Al     tau(  18) = (   0.2500000   0.5000000   0.2500000  )
        19        Al     tau(  19) = (   0.2500000   0.5000000   0.7500000  )
        20        Al     tau(  20) = (   0.7500000   0.0000000   0.2500000  )
        21        Al     tau(  21) = (   0.7500000   0.0000000   0.7500000  )
        22        Al     tau(  22) = (   0.7500000   0.5000000   0.2500000  )
        23        Al     tau(  23) = (   0.7500000   0.5000000   0.7500000  )
        24        Al     tau(  24) = (   0.2500000   0.2500000   0.0000000  )
        25        Al     tau(  25) = (   0.2500000   0.2500000   0.5000000  )
        26        Al     tau(  26) = (   0.2500000   0.7500000   0.0000000  )
        27        Al     tau(  27) = (   0.2500000   0.7500000   0.5000000  )
        28        Al     tau(  28) = (   0.7500000   0.2500000   0.0000000  )
        29        Al     tau(  29) = (   0.7500000   0.2500000   0.5000000  )
        30        Al     tau(  30) = (   0.7500000   0.7500000   0.0000000  )
        31        Al     tau(  31) = (   0.7500000   0.7500000   0.5000000  )

   Crystallographic axes

     site n.     atom                  positions (cryst. coord.)
         1        Al     tau(   1) = (  0.0000000  0.0000000  0.5000000  )
         2        Al     tau(   2) = (  0.0000000  0.5000000  0.0000000  )
         3        Al     tau(   3) = (  0.0000000  0.5000000  0.5000000  )
         4        Al     tau(   4) = (  0.5000000  0.0000000  0.0000000  )
         5        Al     tau(   5) = (  0.5000000  0.0000000  0.5000000  )
         6        Al     tau(   6) = (  0.5000000  0.5000000  0.0000000  )
         7        Al     tau(   7) = (  0.5000000  0.5000000  0.5000000  )
         8        Al     tau(   8) = (  0.0000000  0.2500000  0.2500000  )
         9        Al     tau(   9) = (  0.0000000  0.2500000  0.7500000  )
        10        Al     tau(  10) = (  0.0000000  0.7500000  0.2500000  )
        11        Al     tau(  11) = (  0.0000000  0.7500000  0.7500000  )
        12        Al     tau(  12) = (  0.5000000  0.2500000  0.2500000  )
        13        Al     tau(  13) = (  0.5000000  0.2500000  0.7500000  )
        14        Al     tau(  14) = (  0.5000000  0.7500000  0.2500000  )
        15        Al     tau(  15) = (  0.5000000  0.7500000  0.7500000  )
        16        Al     tau(  16) = (  0.2500000  0.0000000  0.2500000  )
        17        Al     tau(  17) = (  0.2500000  0.0000000  0.7500000  )
        18        Al     tau(  18) = (  0.2500000  0.5000000  0.2500000  )
        19        Al     tau(  19) = (  0.2500000  0.5000000  0.7500000  )
        20        Al     tau(  20) = (  0.7500000  0.0000000  0.2500000  )
        21        Al     tau(  21) = (  0.7500000  0.0000000  0.7500000  )
        22        Al     tau(  22) = (  0.7500000  0.5000000  0.2500000  )
        23        Al     tau(  23) = (  0.7500000  0.5000000  0.7500000  )
        24        Al     tau(  24) = (  0.2500000  0.2500000  0.0000000  )
        25        Al     tau(  25) = (  0.2500000  0.2500000  0.5000000  )
        26        Al     tau(  26) = (  0.2500000  0.7500000  0.0000000  )
        27        Al     tau(  27) = (  0.2500000  0.7500000  0.5000000  )
        28        Al     tau(  28) = (  0.7500000  0.2500000  0.0000000  )
        29        Al     tau(  29) = (  0.7500000  0.2500000  0.5000000  )
        30        Al     tau(  30) = (  0.7500000  0.7500000  0.0000000  )
        31        Al     tau(  31) = (  0.7500000  0.7500000  0.5000000  )

     number of k points=    10  Fermi-Dirac smearing, width (Ry)=  0.0005
                       cart. coord. in units 2pi/alat
        k(    1) = (   0.0000000   0.0000000   0.0000000), wk =   0.0160000
        k(    2) = (   0.0000000   0.0000000   0.2000000), wk =   0.0960000
        k(    3) = (   0.0000000   0.0000000   0.4000000), wk =   0.0960000
        k(    4) = (   0.0000000   0.2000000   0.2000000), wk =   0.1920000
        k(    5) = (   0.0000000   0.2000000   0.4000000), wk =   0.3840000
        k(    6) = (   0.0000000   0.4000000   0.4000000), wk =   0.1920000
        k(    7) = (   0.2000000   0.2000000   0.2000000), wk =   0.1280000
        k(    8) = (   0.2000000   0.2000000   0.4000000), wk =   0.3840000
        k(    9) = (   0.2000000   0.4000000   0.4000000), wk =   0.3840000
        k(   10) = (   0.4000000   0.4000000   0.4000000), wk =   0.1280000

                       cryst. coord.
        k(    1) = (   0.0000000   0.0000000   0.0000000), wk =   0.0160000
        k(    2) = (   0.0000000   0.0000000   0.2000000), wk =   0.0960000
        k(    3) = (   0.0000000   0.0000000   0.4000000), wk =   0.0960000
        k(    4) = (   0.0000000   0.2000000   0.2000000), wk =   0.1920000
        k(    5) = (   0.0000000   0.2000000   0.4000000), wk =   0.3840000
        k(    6) = (   0.0000000   0.4000000   0.4000000), wk =   0.1920000
        k(    7) = (   0.2000000   0.2000000   0.2000000), wk =   0.1280000
        k(    8) = (   0.2000000   0.2000000   0.4000000), wk =   0.3840000
        k(    9) = (   0.2000000   0.4000000   0.4000000), wk =   0.3840000
        k(   10) = (   0.4000000   0.4000000   0.4000000), wk =   0.1280000

     Dense  grid:   338275 G-vectors     FFT dimensions: (  90,  90,  90)

     Smooth grid:   119825 G-vectors     FFT dimensions: (  64,  64,  64)

     Dynamical RAM for                 wfc:       6.39 MB

     Dynamical RAM for     wfc (w. buffer):      19.16 MB

     Dynamical RAM for           str. fact:       2.58 MB

     Dynamical RAM for           local pot:       0.00 MB

     Dynamical RAM for          nlocal pot:      63.65 MB

     Dynamical RAM for                qrad:       2.87 MB

     Dynamical RAM for          rho,v,vnew:      16.09 MB

     Dynamical RAM for               rhoin:       5.36 MB

     Dynamical RAM for            rho*nmix:      41.29 MB

     Dynamical RAM for           G-vectors:      10.14 MB

     Dynamical RAM for          h,s,v(r/c):       0.57 MB

     Dynamical RAM for          <psi|beta>:       0.48 MB

     Dynamical RAM for                 psi:      12.77 MB

     Dynamical RAM for                hpsi:      12.77 MB

     Dynamical RAM for                spsi:      12.77 MB

     Dynamical RAM for      wfcinit/wfcrot:      28.64 MB

     Dynamical RAM for           addusdens:      82.22 MB

     Dynamical RAM for          addusforce:     103.54 MB

     Dynamical RAM for         addusstress:      75.21 MB

     Estimated static dynamical RAM per process >     138.91 MB

     Estimated max dynamical RAM per process >     283.74 MB

     Estimated total dynamical RAM >       3.40 GB

     Initial potential from superposition of free atoms

     starting charge      92.9322, renormalised to      93.0000
     Starting wfcs are  124 randomized atomic wfcs
     Checking if some PAW data can be deallocated... 

     total cpu time spent up to now is       16.7 secs

     Self-consistent Calculation

     iteration #  1     ecut=    40.00 Ry     beta= 0.70
     Davidson diagonalization with overlap

---- Real-time Memory Report at c_bands before calling an iterative solver
           196 MiB given to the printing process from OS
             0 MiB allocation reported by mallinfo(arena+hblkhd)
         16958 MiB available memory on the node where the printing process lives
------------------
     ethr =  1.00E-02,  avg # of iterations =  3.8

     Threshold (ethr) on eigenvalues was too large:
     Diagonalizing with lowered threshold

     Davidson diagonalization with overlap

---- Real-time Memory Report at c_bands before calling an iterative solver
           281 MiB given to the printing process from OS
             0 MiB allocation reported by mallinfo(arena+hblkhd)
         16666 MiB available memory on the node where the printing process lives
------------------
     ethr =  2.08E-04,  avg # of iterations =  4.7

     total cpu time spent up to now is       64.6 secs

     total energy              =   -1193.88687248 Ry
     estimated scf accuracy    <       0.22267846 Ry

     iteration #  2     ecut=    40.00 Ry     beta= 0.70
     Davidson diagonalization with overlap

---- Real-time Memory Report at c_bands before calling an iterative solver
           299 MiB given to the printing process from OS
             0 MiB allocation reported by mallinfo(arena+hblkhd)
         16475 MiB available memory on the node where the printing process lives
------------------
     ethr =  2.39E-04,  avg # of iterations =  4.0

     total cpu time spent up to now is       87.5 secs

     total energy              =   -1193.82494908 Ry
     estimated scf accuracy    <       0.39633158 Ry

     iteration #  3     ecut=    40.00 Ry     beta= 0.70
     Davidson diagonalization with overlap

---- Real-time Memory Report at c_bands before calling an iterative solver
           302 MiB given to the printing process from OS
             0 MiB allocation reported by mallinfo(arena+hblkhd)
         16576 MiB available memory on the node where the printing process lives
------------------
     ethr =  2.39E-04,  avg # of iterations =  4.2

     total cpu time spent up to now is      109.9 secs

     total energy              =   -1193.90248479 Ry
     estimated scf accuracy    <       0.15362445 Ry

     iteration #  4     ecut=    40.00 Ry     beta= 0.70
     Davidson diagonalization with overlap

---- Real-time Memory Report at c_bands before calling an iterative solver
           302 MiB given to the printing process from OS
             0 MiB allocation reported by mallinfo(arena+hblkhd)
         16516 MiB available memory on the node where the printing process lives
------------------
     ethr =  1.65E-04,  avg # of iterations =  2.2

     total cpu time spent up to now is      129.5 secs

     total energy              =   -1193.92296710 Ry
     estimated scf accuracy    <       0.01716158 Ry

     iteration #  5     ecut=    40.00 Ry     beta= 0.70
     Davidson diagonalization with overlap

---- Real-time Memory Report at c_bands before calling an iterative solver
           304 MiB given to the printing process from OS
             0 MiB allocation reported by mallinfo(arena+hblkhd)
         16361 MiB available memory on the node where the printing process lives
------------------
     ethr =  1.85E-05,  avg # of iterations =  5.4

     total cpu time spent up to now is      151.6 secs

     total energy              =   -1193.92696731 Ry
     estimated scf accuracy    <       0.00047931 Ry

     iteration #  6     ecut=    40.00 Ry     beta= 0.70
     Davidson diagonalization with overlap

---- Real-time Memory Report at c_bands before calling an iterative solver
           304 MiB given to the printing process from OS
             0 MiB allocation reported by mallinfo(arena+hblkhd)
         16610 MiB available memory on the node where the printing process lives
------------------
     ethr =  5.15E-07,  avg # of iterations = 11.5

     total cpu time spent up to now is      187.0 secs

     total energy              =   -1193.92748707 Ry
     estimated scf accuracy    <       0.00019826 Ry

     iteration #  7     ecut=    40.00 Ry     beta= 0.70
     Davidson diagonalization with overlap

---- Real-time Memory Report at c_bands before calling an iterative solver
           307 MiB given to the printing process from OS
             0 MiB allocation reported by mallinfo(arena+hblkhd)
         16685 MiB available memory on the node where the printing process lives
------------------
     ethr =  2.13E-07,  avg # of iterations =  4.5

     total cpu time spent up to now is      209.4 secs

     total energy              =   -1193.92752871 Ry
     estimated scf accuracy    <       0.00001617 Ry

     iteration #  8     ecut=    40.00 Ry     beta= 0.70
     Davidson diagonalization with overlap

---- Real-time Memory Report at c_bands before calling an iterative solver
           307 MiB given to the printing process from OS
             0 MiB allocation reported by mallinfo(arena+hblkhd)
         16461 MiB available memory on the node where the printing process lives
------------------
     ethr =  1.74E-08,  avg # of iterations =  5.4

     total cpu time spent up to now is      234.3 secs

     total energy              =   -1193.92753320 Ry
     estimated scf accuracy    <       0.00000806 Ry

     iteration #  9     ecut=    40.00 Ry     beta= 0.70
     Davidson diagonalization with overlap

---- Real-time Memory Report at c_bands before calling an iterative solver
           307 MiB given to the printing process from OS
             0 MiB allocation reported by mallinfo(arena+hblkhd)
         16565 MiB available memory on the node where the printing process lives
------------------
     ethr =  8.67E-09,  avg # of iterations =  2.3

     total cpu time spent up to now is      254.4 secs

     total energy              =   -1193.92753449 Ry
     estimated scf accuracy    <       0.00000046 Ry

     iteration # 10     ecut=    40.00 Ry     beta= 0.70
     Davidson diagonalization with overlap

---- Real-time Memory Report at c_bands before calling an iterative solver
           307 MiB given to the printing process from OS
             0 MiB allocation reported by mallinfo(arena+hblkhd)
         16503 MiB available memory on the node where the printing process lives
------------------
     ethr =  4.99E-10,  avg # of iterations =  6.9

     total cpu time spent up to now is      280.6 secs

     total energy              =   -1193.92753473 Ry
     estimated scf accuracy    <       0.00000014 Ry

     iteration # 11     ecut=    40.00 Ry     beta= 0.70
     Davidson diagonalization with overlap

---- Real-time Memory Report at c_bands before calling an iterative solver
           307 MiB given to the printing process from OS
             0 MiB allocation reported by mallinfo(arena+hblkhd)
         16581 MiB available memory on the node where the printing process lives
------------------
     ethr =  1.46E-10,  avg # of iterations =  3.1

     total cpu time spent up to now is      299.6 secs

     total energy              =   -1193.92753475 Ry
     estimated scf accuracy    <       0.00000002 Ry

     iteration # 12     ecut=    40.00 Ry     beta= 0.70
     Davidson diagonalization with overlap

---- Real-time Memory Report at c_bands before calling an iterative solver
           307 MiB given to the printing process from OS
             0 MiB allocation reported by mallinfo(arena+hblkhd)
         16457 MiB available memory on the node where the printing process lives
------------------
     ethr =  1.65E-11,  avg # of iterations =  6.7

     total cpu time spent up to now is      327.0 secs

     total energy              =   -1193.92753475 Ry
     estimated scf accuracy    <          6.5E-09 Ry

     iteration # 13     ecut=    40.00 Ry     beta= 0.70
     Davidson diagonalization with overlap

---- Real-time Memory Report at c_bands before calling an iterative solver
           307 MiB given to the printing process from OS
             0 MiB allocation reported by mallinfo(arena+hblkhd)
         16742 MiB available memory on the node where the printing process lives
------------------
     ethr =  6.95E-12,  avg # of iterations =  2.0

     total cpu time spent up to now is      345.7 secs

     End of self-consistent calculation

          k = 0.0000 0.0000 0.0000 ( 14939 PWs)   bands (ev):

    -3.4636  -1.3096  -1.3096  -1.2183  -1.2183  -1.2183  -0.7913   0.9218
     0.9218   0.9218   0.9342   0.9342   0.9840   0.9840   0.9840   1.2273
     1.2273   1.2273   1.9739   3.0350   3.2425   3.2425   3.2425   3.3644
     3.3644   3.3644   4.1805   4.8842   4.8842   4.8842   6.1829   6.1829
     6.4464   6.8043   6.8043   6.8043   6.8121   6.8121   6.8121   6.9904
     6.9904   6.9904   7.2841   7.2841   7.2841   7.7850   8.0007   8.0007
     8.0007   8.0989   8.0989   8.9205   8.9205   8.9458   8.9459   8.9459

     occupation numbers 
     1.0000   1.0000   1.0000   1.0000   1.0000   1.0000   1.0000   1.0000
     1.0000   1.0000   1.0000   1.0000   1.0000   1.0000   1.0000   1.0000
     1.0000   1.0000   1.0000   1.0000   1.0000   1.0000   1.0000   1.0000
     1.0000   1.0000   1.0000   1.0000   1.0000   1.0000   1.0000   1.0000
     1.0000   1.0000   1.0000   1.0000   1.0000   1.0000   1.0000   1.0000
     1.0000   1.0000   1.0000   1.0000   1.0000   0.0004   0.0000   0.0000
     0.0000   0.0000   0.0000   0.0000   0.0000   0.0000   0.0000   0.0000

          k = 0.0000 0.0000 0.2000 ( 14951 PWs)   bands (ev):

    -3.3747  -2.0113  -1.2195  -1.1298  -1.1298  -0.9047  -0.1683   0.1269
     0.2189   0.2189   0.5223   1.0721   1.1577   1.1577   1.3584   1.9001
     2.0041   2.0041   2.3844   2.3945   2.5326   2.5326   2.9591   3.8088
     4.1744   4.2458   4.2458   4.7510   4.9696   4.9696   5.7305   5.8068
     5.8068   6.2295   6.2295   6.2437   6.2705   6.4455   6.8961   7.0669
     7.1349   7.1349   7.5216   7.5355   7.5475   7.8982   7.8982   7.9316
     8.0086   8.0086   8.1593   8.3494   8.3495   8.3774   8.3983   8.4246

     occupation numbers 
     1.0000   1.0000   1.0000   1.0000   1.0000   1.0000   1.0000   1.0000
     1.0000   1.0000   1.0000   1.0000   1.0000   1.0000   1.0000   1.0000
     1.0000   1.0000   1.0000   1.0000   1.0000   1.0000   1.0000   1.0000
     1.0000   1.0000   1.0000   1.0000   1.0000   1.0000   1.0000   1.0000
     1.0000   1.0000   1.0000   1.0000   1.0000   1.0000   1.0000   1.0000
     1.0000   1.0000   1.0000   1.0000   1.0000   0.0000   0.0000   0.0000
     0.0000   0.0000   0.0000   0.0000   0.0000   0.0000   0.0000   0.0000

          k = 0.0000 0.0000 0.4000 ( 14942 PWs)   bands (ev):

    -3.1176  -2.6184  -0.9499  -0.8716  -0.8716  -0.7213  -0.4989  -0.3893
    -0.3893   0.0392   0.9517   1.3328   1.3956   1.3956   1.5245   1.7889
     1.9304   1.9304   2.0948   2.5601   3.0372   3.1473   3.1473   3.6858
     4.3276   4.4239   4.4239   4.8966   5.1251   5.1251   5.2892   5.3993
     5.3993   5.6972   5.6972   5.7422   6.5057   6.5581   6.6598   6.6598
     6.6760   6.8090   7.0200   7.1480   7.2778   7.3201   7.3201   7.4340
     7.5703   7.8518   8.0161   8.0161   8.7324   8.7324   8.7455   8.8662

     occupation numbers 
     1.0000   1.0000   1.0000   1.0000   1.0000   1.0000   1.0000   1.0000
     1.0000   1.0000   1.0000   1.0000   1.0000   1.0000   1.0000   1.0000
     1.0000   1.0000   1.0000   1.0000   1.0000   1.0000   1.0000   1.0000
     1.0000   1.0000   1.0000   1.0000   1.0000   1.0000   1.0000   1.0000
     1.0000   1.0000   1.0000   1.0000   1.0000   1.0000   1.0000   1.0000
     1.0000   1.0000   1.0000   1.0000   1.0000   1.0000   1.0000   1.0000
     1.0000   0.0000   0.0000   0.0000   0.0000   0.0000   0.0000   0.0000

          k = 0.0000 0.2000 0.2000 ( 14980 PWs)   bands (ev):

    -3.2857  -1.9870  -1.8463  -1.0414  -0.9821  -0.5392  -0.1919  -0.0238
     0.2410   0.2839   0.3886   0.6140   1.2482   1.2914   1.6587   1.8674
     2.0126   2.0722   2.1752   2.4533   3.0966   3.3132   3.3736   3.5427
     3.7466   3.8815   4.1351   4.9882   5.0193   5.2101   5.2384   5.4453
     5.7724   5.9134   6.0305   6.2115   6.2276   6.4553   6.4559   6.7868
     6.8412   7.1602   7.2432   7.3268   7.5443   7.6098   7.6695   7.6784
     7.7166   7.8606   8.1432   8.1798   8.6549   8.6575   8.8983   8.9062

     occupation numbers 
     1.0000   1.0000   1.0000   1.0000   1.0000   1.0000   1.0000   1.0000
     1.0000   1.0000   1.0000   1.0000   1.0000   1.0000   1.0000   1.0000
     1.0000   1.0000   1.0000   1.0000   1.0000   1.0000   1.0000   1.0000
     1.0000   1.0000   1.0000   1.0000   1.0000   1.0000   1.0000   1.0000
     1.0000   1.0000   1.0000   1.0000   1.0000   1.0000   1.0000   1.0000
     1.0000   1.0000   1.0000   1.0000   1.0000   1.0000   0.9999   0.9996
     0.9072   0.0000   0.0000   0.0000   0.0000   0.0000   0.0000   0.0000

          k = 0.0000 0.2000 0.4000 ( 14947 PWs)   bands (ev):

    -3.0281  -2.5339  -1.6572  -1.1720  -0.7831  -0.7139  -0.3045  -0.2092
     0.1643   0.5732   0.6087   0.7000   1.0512   1.0646   1.4025   2.3328
     2.3621   2.3766   2.4789   2.8101   3.0642   3.2391   3.4496   3.7077
     4.0501   4.2226   4.5046   4.5461   4.5531   4.6868   4.9377   5.2507
     5.4765   5.6939   5.8757   6.0793   6.1701   6.2827   6.2887   6.4376
     6.5265   6.6392   6.7352   7.0255   7.1279   7.2171   7.5587   7.7691
     7.8272   7.9717   8.1845   8.2013   8.3675   8.7410   8.7717   9.1598

     occupation numbers 
     1.0000   1.0000   1.0000   1.0000   1.0000   1.0000   1.0000   1.0000
     1.0000   1.0000   1.0000   1.0000   1.0000   1.0000   1.0000   1.0000
     1.0000   1.0000   1.0000   1.0000   1.0000   1.0000   1.0000   1.0000
     1.0000   1.0000   1.0000   1.0000   1.0000   1.0000   1.0000   1.0000
     1.0000   1.0000   1.0000   1.0000   1.0000   1.0000   1.0000   1.0000
     1.0000   1.0000   1.0000   1.0000   1.0000   1.0000   1.0000   0.0043
     0.0000   0.0000   0.0000   0.0000   0.0000   0.0000   0.0000   0.0000

          k = 0.0000 0.4000 0.4000 ( 14956 PWs)   bands (ev):

    -2.7670  -2.3491  -2.2177  -1.7466  -0.5231  -0.4737  -0.1159  -0.0735
     0.0145   0.1108   0.4710   0.7497   1.2239   1.4000   1.7747   1.9447
     2.6230   2.6471   3.0078   3.3017   3.4026   3.4237   3.5018   3.6908
     3.8540   3.9456   4.0706   4.4883   4.6189   4.7562   4.9264   5.0109
     5.1724   5.3066   5.3159   5.3897   5.4825   5.8573   5.9455   6.0382
     6.4937   6.6235   6.7086   6.8412   7.3760   7.4034   7.5523   7.6640
     7.8874   8.3742   8.6368   8.6614   8.8944   9.0262   9.1993   9.3762

     occupation numbers 
     1.0000   1.0000   1.0000   1.0000   1.0000   1.0000   1.0000   1.0000
     1.0000   1.0000   1.0000   1.0000   1.0000   1.0000   1.0000   1.0000
     1.0000   1.0000   1.0000   1.0000   1.0000   1.0000   1.0000   1.0000
     1.0000   1.0000   1.0000   1.0000   1.0000   1.0000   1.0000   1.0000
     1.0000   1.0000   1.0000   1.0000   1.0000   1.0000   1.0000   1.0000
     1.0000   1.0000   1.0000   1.0000   1.0000   1.0000   1.0000   1.0000
     0.0000   0.0000   0.0000   0.0000   0.0000   0.0000   0.0000   0.0000

          k = 0.2000 0.2000 0.2000 ( 14940 PWs)   bands (ev):

    -3.1967  -1.8970  -1.8970  -1.6654  -0.5438  -0.5438  -0.2679  -0.0966
    -0.0966   0.2071   0.9406   1.1871   1.2240   1.2240   1.4083   1.4083
     1.7839   2.6820   2.6820   2.7719   3.0113   3.0113   3.4664   3.9021
     3.9021   3.9591   4.4508   4.4508   4.8016   5.0414   5.0853   5.0853
     5.3300   5.3300   5.5066   6.2433   6.4257   6.4257   6.7890   6.8261
     6.8430   6.8430   7.1257   7.1257   7.2509   7.6282   7.6282   7.8040
     8.0841   8.1685   8.1685   8.4331   8.4331   8.4579   8.8397   8.8548

     occupation numbers 
     1.0000   1.0000   1.0000   1.0000   1.0000   1.0000   1.0000   1.0000
     1.0000   1.0000   1.0000   1.0000   1.0000   1.0000   1.0000   1.0000
     1.0000   1.0000   1.0000   1.0000   1.0000   1.0000   1.0000   1.0000
     1.0000   1.0000   1.0000   1.0000   1.0000   1.0000   1.0000   1.0000
     1.0000   1.0000   1.0000   1.0000   1.0000   1.0000   1.0000   1.0000
     1.0000   1.0000   1.0000   1.0000   1.0000   1.0000   1.0000   0.0000
     0.0000   0.0000   0.0000   0.0000   0.0000   0.0000   0.0000   0.0000

          k = 0.2000 0.2000 0.4000 ( 14929 PWs)   bands (ev):

    -2.9387  -2.4488  -1.6300  -1.5049  -1.1661  -0.9388  -0.1826   0.1653
     0.2696   0.3854   0.6203   0.8780   1.1636   1.5704   1.6422   2.0941
     2.1314   2.4036   2.5237   2.7239   3.3454   3.6818   3.6833   3.9021
     4.0158   4.0930   4.1691   4.1878   4.5497   4.6570   4.6582   5.1695
     5.2323   5.4773   5.5242   5.5997   5.7465   5.7947   5.8814   6.4236
     6.8215   6.9821   7.1820   7.1826   7.3149   7.7415   7.7436   7.8477
     7.9510   7.9903   8.0707   8.4572   8.5097   8.7486   9.2067   9.2477

     occupation numbers 
     1.0000   1.0000   1.0000   1.0000   1.0000   1.0000   1.0000   1.0000
     1.0000   1.0000   1.0000   1.0000   1.0000   1.0000   1.0000   1.0000
     1.0000   1.0000   1.0000   1.0000   1.0000   1.0000   1.0000   1.0000
     1.0000   1.0000   1.0000   1.0000   1.0000   1.0000   1.0000   1.0000
     1.0000   1.0000   1.0000   1.0000   1.0000   1.0000   1.0000   1.0000
     1.0000   1.0000   1.0000   1.0000   1.0000   0.2006   0.1542   0.0000
     0.0000   0.0000   0.0000   0.0000   0.0000   0.0000   0.0000   0.0000

          k = 0.2000 0.4000 0.4000 ( 14957 PWs)   bands (ev):

    -2.6775  -2.2589  -2.1351  -1.6816  -1.2937  -0.8994  -0.7190  -0.1625
     0.4810   0.8797   1.0246   1.3126   1.4295   1.5644   1.8582   2.0404
     2.6297   2.7071   2.7197   2.8326   3.0707   3.2539   3.2997   3.4469
     4.0358   4.0592   4.2491   4.4000   4.4681   4.5707   4.7425   4.8030
     4.9479   4.9743   5.1449   5.4650   5.7633   5.7785   5.8727   6.1587
     6.4996   6.7302   6.7695   6.8550   7.8180   7.9885   7.9936   8.1903
     8.2873   8.3528   8.4582   8.5559   8.7521   8.7788   8.9810   9.2124

     occupation numbers 
     1.0000   1.0000   1.0000   1.0000   1.0000   1.0000   1.0000   1.0000
     1.0000   1.0000   1.0000   1.0000   1.0000   1.0000   1.0000   1.0000
     1.0000   1.0000   1.0000   1.0000   1.0000   1.0000   1.0000   1.0000
     1.0000   1.0000   1.0000   1.0000   1.0000   1.0000   1.0000   1.0000
     1.0000   1.0000   1.0000   1.0000   1.0000   1.0000   1.0000   1.0000
     1.0000   1.0000   1.0000   1.0000   0.0000   0.0000   0.0000   0.0000
     0.0000   0.0000   0.0000   0.0000   0.0000   0.0000   0.0000   0.0000

          k = 0.4000 0.4000 0.4000 ( 14979 PWs)   bands (ev):

    -2.4143  -1.9912  -1.9912  -1.8423  -1.5251  -1.5251  -1.2768  -0.6624
     1.5713   1.5713   1.7234   1.9786   2.0126   2.0126   2.1466   2.1466
     2.3258   2.6009   2.6009   2.7808   2.9755   2.9755   3.1500   3.2803
     3.3242   3.3242   3.5544   3.5544   3.6680   3.9000   3.9000   4.7600
     5.5293   5.5293   5.7469   6.0611   6.0611   6.4763   6.7712   6.7955
     6.7955   6.9922   6.9922   6.9934   7.2114   7.3339   7.3339   7.6294
     7.6294   7.7958   8.1860   8.1860   8.2513   8.5933   8.5934   9.2141

     occupation numbers 
     1.0000   1.0000   1.0000   1.0000   1.0000   1.0000   1.0000   1.0000
     1.0000   1.0000   1.0000   1.0000   1.0000   1.0000   1.0000   1.0000
     1.0000   1.0000   1.0000   1.0000   1.0000   1.0000   1.0000   1.0000
     1.0000   1.0000   1.0000   1.0000   1.0000   1.0000   1.0000   1.0000
     1.0000   1.0000   1.0000   1.0000   1.0000   1.0000   1.0000   1.0000
     1.0000   1.0000   1.0000   1.0000   1.0000   1.0000   1.0000   1.0000
     1.0000   0.0001   0.0000   0.0000   0.0000   0.0000   0.0000   0.0000

     the Fermi energy is     7.7321 ev

!    total energy              =   -1193.92753476 Ry
     total all-electron energy =    -15025.436065 Ry
     estimated scf accuracy    <          4.9E-10 Ry
     smearing contrib. (-TS)   =      -0.00021435 Ry
     internal energy E=F+TS    =   -1193.92732040 Ry

     The total energy is F=E-TS. E is the sum of the following terms:
     one-electron contribution =      94.00629183 Ry
     hartree contribution      =       1.65099349 Ry
     xc contribution           =     -80.11537569 Ry
     ewald contribution        =    -164.75526428 Ry
     one-center paw contrib.   =   -1044.71396576 Ry
      -> PAW hartree energy AE =       4.21899150 Ry
      -> PAW hartree energy PS =      -4.20591500 Ry
      -> PAW xc energy AE      =    -106.80140303 Ry
      -> PAW xc energy PS      =       5.68922389 Ry
      -> total E_H with PAW    =       1.66407000 Ry
      -> total E_XC with PAW   =    -181.22755482 Ry

     convergence has been achieved in  13 iterations

     Forces acting on atoms (cartesian axes, Ry/au):

     atom    1 type  1   force =     0.00000000    0.00000000    0.00000000
     atom    2 type  1   force =     0.00000000    0.00000000    0.00000000
     atom    3 type  1   force =     0.00000000    0.00000000    0.00000000
     atom    4 type  1   force =     0.00000000    0.00000000    0.00000000
     atom    5 type  1   force =     0.00000000    0.00000000    0.00000000
     atom    6 type  1   force =     0.00000000    0.00000000    0.00000000
     atom    7 type  1   force =     0.00000000    0.00000000    0.00000000
     atom    8 type  1   force =     0.00000000   -0.00689965   -0.00689965
     atom    9 type  1   force =     0.00000000   -0.00689965    0.00689965
     atom   10 type  1   force =    -0.00000000    0.00689965   -0.00689965
     atom   11 type  1   force =    -0.00000000    0.00689965    0.00689965
     atom   12 type  1   force =     0.00000000    0.00020717    0.00020717
     atom   13 type  1   force =     0.00000000    0.00020717   -0.00020717
     atom   14 type  1   force =    -0.00000000   -0.00020717    0.00020717
     atom   15 type  1   force =     0.00000000   -0.00020717   -0.00020717
     atom   16 type  1   force =    -0.00689965   -0.00000000   -0.00689965
     atom   17 type  1   force =    -0.00689965    0.00000000    0.00689965
     atom   18 type  1   force =     0.00020717   -0.00000000    0.00020717
     atom   19 type  1   force =     0.00020717    0.00000000   -0.00020717
     atom   20 type  1   force =     0.00689965   -0.00000000   -0.00689965
     atom   21 type  1   force =     0.00689965    0.00000000    0.00689965
     atom   22 type  1   force =    -0.00020717   -0.00000000    0.00020717
     atom   23 type  1   force =    -0.00020717   -0.00000000   -0.00020717
     atom   24 type  1   force =    -0.00689965   -0.00689965    0.00000000
     atom   25 type  1   force =     0.00020717    0.00020717    0.00000000
     atom   26 type  1   force =    -0.00689965    0.00689965   -0.00000000
     atom   27 type  1   force =     0.00020717   -0.00020717    0.00000000
     atom   28 type  1   force =     0.00689965   -0.00689965    0.00000000
     atom   29 type  1   force =    -0.00020717    0.00020717    0.00000000
     atom   30 type  1   force =     0.00689965    0.00689965   -0.00000000
     atom   31 type  1   force =    -0.00020717   -0.00020717   -0.00000000
     The non-local contrib.  to forces
     atom    1 type  1   force =     0.00000000    0.00000000    0.00000000
     atom    2 type  1   force =     0.00000000    0.00000000    0.00000000
     atom    3 type  1   force =     0.00000000    0.00000000    0.00000000
     atom    4 type  1   force =     0.00000000    0.00000000    0.00000000
     atom    5 type  1   force =     0.00000000    0.00000000    0.00000000
     atom    6 type  1   force =     0.00000000    0.00000000    0.00000000
     atom    7 type  1   force =     0.00000000    0.00000000    0.00000000
     atom    8 type  1   force =     0.00000000   -0.00691035   -0.00691035
     atom    9 type  1   force =     0.00000000   -0.00691035    0.00691035
     atom   10 type  1   force =    -0.00000000    0.00691035   -0.00691035
     atom   11 type  1   force =    -0.00000000    0.00691035    0.00691035
     atom   12 type  1   force =     0.00000000    0.00127973    0.00127973
     atom   13 type  1   force =     0.00000000    0.00127973   -0.00127973
     atom   14 type  1   force =     0.00000000   -0.00127973    0.00127973
     atom   15 type  1   force =    -0.00000000   -0.00127973   -0.00127973
     atom   16 type  1   force =    -0.00691035   -0.00000000   -0.00691035
     atom   17 type  1   force =    -0.00691035    0.00000000    0.00691035
     atom   18 type  1   force =     0.00127973    0.00000000    0.00127973
     atom   19 type  1   force =     0.00127973    0.00000000   -0.00127973
     atom   20 type  1   force =     0.00691035   -0.00000000   -0.00691035
     atom   21 type  1   force =     0.00691035   -0.00000000    0.00691035
     atom   22 type  1   force =    -0.00127973   -0.00000000    0.00127973
     atom   23 type  1   force =    -0.00127973   -0.00000000   -0.00127973
     atom   24 type  1   force =    -0.00691035   -0.00691035   -0.00000000
     atom   25 type  1   force =     0.00127973    0.00127973    0.00000000
     atom   26 type  1   force =    -0.00691035    0.00691035   -0.00000000
     atom   27 type  1   force =     0.00127973   -0.00127973    0.00000000
     atom   28 type  1   force =     0.00691035   -0.00691035    0.00000000
     atom   29 type  1   force =    -0.00127973    0.00127973    0.00000000
     atom   30 type  1   force =     0.00691035    0.00691035    0.00000000
     atom   31 type  1   force =    -0.00127973   -0.00127973    0.00000000
     The ionic contribution  to forces
     atom    1 type  1   force =    -0.00000000   -0.00000000    0.00000000
     atom    2 type  1   force =    -0.00000000    0.00000000   -0.00000000
     atom    3 type  1   force =    -0.00000000    0.00000000    0.00000000
     atom    4 type  1   force =     0.00000000   -0.00000000   -0.00000000
     atom    5 type  1   force =    -0.00000000   -0.00000000    0.00000000
     atom    6 type  1   force =    -0.00000000    0.00000000   -0.00000000
     atom    7 type  1   force =    -0.00000000   -0.00000000   -0.00000000
     atom    8 type  1   force =     0.00000000   -0.36870711   -0.36870711
     atom    9 type  1   force =    -0.00000000   -0.36870711    0.36870711
     atom   10 type  1   force =     0.00000000    0.36870711   -0.36870711
     atom   11 type  1   force =    -0.00000000    0.36870711    0.36870711
     atom   12 type  1   force =     0.00000000   -0.08329302   -0.08329302
     atom   13 type  1   force =    -0.00000000   -0.08329302    0.08329302
     atom   14 type  1   force =    -0.00000000    0.08329302   -0.08329302
     atom   15 type  1   force =    -0.00000000    0.08329302    0.08329302
     atom   16 type  1   force =    -0.36870711   -0.00000000   -0.36870711
     atom   17 type  1   force =    -0.36870711   -0.00000000    0.36870711
     atom   18 type  1   force =    -0.08329302   -0.00000000   -0.08329302
     atom   19 type  1   force =    -0.08329302   -0.00000000    0.08329302
     atom   20 type  1   force =     0.36870711   -0.00000000   -0.36870711
     atom   21 type  1   force =     0.36870711   -0.00000000    0.36870711
     atom   22 type  1   force =     0.08329302   -0.00000000   -0.08329302
     atom   23 type  1   force =     0.08329302   -0.00000000    0.08329302
     atom   24 type  1   force =    -0.36870711   -0.36870711   -0.00000000
     atom   25 type  1   force =    -0.08329302   -0.08329302    0.00000000
     atom   26 type  1   force =    -0.36870711    0.36870711   -0.00000000
     atom   27 type  1   force =    -0.08329302    0.08329302   -0.00000000
     atom   28 type  1   force =     0.36870711   -0.36870711   -0.00000000
     atom   29 type  1   force =     0.08329302   -0.08329302   -0.00000000
     atom   30 type  1   force =     0.36870711    0.36870711   -0.00000000
     atom   31 type  1   force =     0.08329302    0.08329302   -0.00000000
     The local contribution  to forces
     atom    1 type  1   force =     0.00000000    0.00000000    0.00000000
     atom    2 type  1   force =     0.00000000    0.00000000   -0.00000000
     atom    3 type  1   force =     0.00000000    0.00000000    0.00000000
     atom    4 type  1   force =     0.00000000    0.00000000   -0.00000000
     atom    5 type  1   force =    -0.00000000    0.00000000    0.00000000
     atom    6 type  1   force =    -0.00000000    0.00000000   -0.00000000
     atom    7 type  1   force =    -0.00000000   -0.00000000    0.00000000
     atom    8 type  1   force =     0.00000000    0.36725273    0.36725273
     atom    9 type  1   force =     0.00000000    0.36725273   -0.36725273
     atom   10 type  1   force =     0.00000000   -0.36725273    0.36725273
     atom   11 type  1   force =     0.00000000   -0.36725273   -0.36725273
     atom   12 type  1   force =    -0.00000000    0.08233043    0.08233043
     atom   13 type  1   force =     0.00000000    0.08233043   -0.08233043
     atom   14 type  1   force =    -0.00000000   -0.08233043    0.08233043
     atom   15 type  1   force =    -0.00000000   -0.08233043   -0.08233043
     atom   16 type  1   force =     0.36725273    0.00000000    0.36725273
     atom   17 type  1   force =     0.36725273    0.00000000   -0.36725273
     atom   18 type  1   force =     0.08233043    0.00000000    0.08233043
     atom   19 type  1   force =     0.08233043    0.00000000   -0.08233043
     atom   20 type  1   force =    -0.36725273    0.00000000    0.36725273
     atom   21 type  1   force =    -0.36725273    0.00000000   -0.36725273
     atom   22 type  1   force =    -0.08233043    0.00000000    0.08233043
     atom   23 type  1   force =    -0.08233043   -0.00000000   -0.08233043
     atom   24 type  1   force =     0.36725273    0.36725273   -0.00000000
     atom   25 type  1   force =     0.08233043    0.08233043    0.00000000
     atom   26 type  1   force =     0.36725273   -0.36725273   -0.00000000
     atom   27 type  1   force =     0.08233043   -0.08233043    0.00000000
     atom   28 type  1   force =    -0.36725273    0.36725273   -0.00000000
     atom   29 type  1   force =    -0.08233043    0.08233043    0.00000000
     atom   30 type  1   force =    -0.36725273   -0.36725273   -0.00000000
     atom   31 type  1   force =    -0.08233043   -0.08233043    0.00000000
     The core correction contribution to forces
     atom    1 type  1   force =     0.00000000   -0.00000000   -0.00000000
     atom    2 type  1   force =     0.00000000   -0.00000000    0.00000000
     atom    3 type  1   force =     0.00000000   -0.00000000   -0.00000000
     atom    4 type  1   force =    -0.00000000    0.00000000    0.00000000
     atom    5 type  1   force =     0.00000000   -0.00000000   -0.00000000
     atom    6 type  1   force =     0.00000000   -0.00000000    0.00000000
     atom    7 type  1   force =     0.00000000   -0.00000000    0.00000000
     atom    8 type  1   force =    -0.00000000    0.00147052    0.00147052
     atom    9 type  1   force =     0.00000000    0.00147052   -0.00147052
     atom   10 type  1   force =     0.00000000   -0.00147052    0.00147052
     atom   11 type  1   force =     0.00000000   -0.00147052   -0.00147052
     atom   12 type  1   force =    -0.00000000   -0.00010780   -0.00010780
     atom   13 type  1   force =     0.00000000   -0.00010780    0.00010780
     atom   14 type  1   force =     0.00000000    0.00010780   -0.00010780
     atom   15 type  1   force =     0.00000000    0.00010780    0.00010780
     atom   16 type  1   force =     0.00147052   -0.00000000    0.00147052
     atom   17 type  1   force =     0.00147052    0.00000000   -0.00147052
     atom   18 type  1   force =    -0.00010780   -0.00000000   -0.00010780
     atom   19 type  1   force =    -0.00010780   -0.00000000    0.00010780
     atom   20 type  1   force =    -0.00147052   -0.00000000    0.00147052
     atom   21 type  1   force =    -0.00147052    0.00000000   -0.00147052
     atom   22 type  1   force =     0.00010780   -0.00000000   -0.00010780
     atom   23 type  1   force =     0.00010780   -0.00000000    0.00010780
     atom   24 type  1   force =     0.00147052    0.00147052    0.00000000
     atom   25 type  1   force =    -0.00010780   -0.00010780    0.00000000
     atom   26 type  1   force =     0.00147052   -0.00147052    0.00000000
     atom   27 type  1   force =    -0.00010780    0.00010780    0.00000000
     atom   28 type  1   force =    -0.00147052    0.00147052    0.00000000
     atom   29 type  1   force =     0.00010780   -0.00010780    0.00000000
     atom   30 type  1   force =    -0.00147052   -0.00147052    0.00000000
     atom   31 type  1   force =     0.00010780    0.00010780   -0.00000000
     The Hubbard contrib.    to forces
     atom    1 type  1   force =     0.00000000    0.00000000    0.00000000
     atom    2 type  1   force =     0.00000000    0.00000000    0.00000000
     atom    3 type  1   force =     0.00000000    0.00000000    0.00000000
     atom    4 type  1   force =     0.00000000    0.00000000    0.00000000
     atom    5 type  1   force =     0.00000000    0.00000000    0.00000000
     atom    6 type  1   force =     0.00000000    0.00000000    0.00000000
     atom    7 type  1   force =     0.00000000    0.00000000    0.00000000
     atom    8 type  1   force =     0.00000000    0.00000000    0.00000000
     atom    9 type  1   force =     0.00000000    0.00000000    0.00000000
     atom   10 type  1   force =     0.00000000    0.00000000    0.00000000
     atom   11 type  1   force =     0.00000000    0.00000000    0.00000000
     atom   12 type  1   force =     0.00000000    0.00000000    0.00000000
     atom   13 type  1   force =     0.00000000    0.00000000    0.00000000
     atom   14 type  1   force =     0.00000000    0.00000000    0.00000000
     atom   15 type  1   force =     0.00000000    0.00000000    0.00000000
     atom   16 type  1   force =     0.00000000    0.00000000    0.00000000
     atom   17 type  1   force =     0.00000000    0.00000000    0.00000000
     atom   18 type  1   force =     0.00000000    0.00000000    0.00000000
     atom   19 type  1   force =     0.00000000    0.00000000    0.00000000
     atom   20 type  1   force =     0.00000000    0.00000000    0.00000000
     atom   21 type  1   force =     0.00000000    0.00000000    0.00000000
     atom   22 type  1   force =     0.00000000    0.00000000    0.00000000
     atom   23 type  1   force =     0.00000000    0.00000000    0.00000000
     atom   24 type  1   force =     0.00000000    0.00000000    0.00000000
     atom   25 type  1   force =     0.00000000    0.00000000    0.00000000
     atom   26 type  1   force =     0.00000000    0.00000000    0.00000000
     atom   27 type  1   force =     0.00000000    0.00000000    0.00000000
     atom   28 type  1   force =     0.00000000    0.00000000    0.00000000
     atom   29 type  1   force =     0.00000000    0.00000000    0.00000000
     atom   30 type  1   force =     0.00000000    0.00000000    0.00000000
     atom   31 type  1   force =     0.00000000    0.00000000    0.00000000
     The SCF correction term to forces
     atom    1 type  1   force =    -0.00000000   -0.00000000    0.00000000
     atom    2 type  1   force =    -0.00000000   -0.00000000   -0.00000000
     atom    3 type  1   force =     0.00000000    0.00000000    0.00000000
     atom    4 type  1   force =     0.00000000    0.00000000   -0.00000000
     atom    5 type  1   force =     0.00000000   -0.00000000    0.00000000
     atom    6 type  1   force =     0.00000000   -0.00000000    0.00000000
     atom    7 type  1   force =     0.00000000    0.00000000    0.00000000
     atom    8 type  1   force =     0.00000000   -0.00000544   -0.00000544
     atom    9 type  1   force =     0.00000000   -0.00000544    0.00000544
     atom   10 type  1   force =     0.00000000    0.00000544   -0.00000544
     atom   11 type  1   force =    -0.00000000    0.00000544    0.00000544
     atom   12 type  1   force =     0.00000000   -0.00000217   -0.00000217
     atom   13 type  1   force =     0.00000000   -0.00000217    0.00000217
     atom   14 type  1   force =     0.00000000    0.00000217   -0.00000217
     atom   15 type  1   force =     0.00000000    0.00000217    0.00000217
     atom   16 type  1   force =    -0.00000544    0.00000000   -0.00000544
     atom   17 type  1   force =    -0.00000544   -0.00000000    0.00000544
     atom   18 type  1   force =    -0.00000217    0.00000000   -0.00000217
     atom   19 type  1   force =    -0.00000217    0.00000000    0.00000217
     atom   20 type  1   force =     0.00000544    0.00000000   -0.00000544
     atom   21 type  1   force =     0.00000544   -0.00000000    0.00000544
     atom   22 type  1   force =     0.00000217    0.00000000   -0.00000217
     atom   23 type  1   force =     0.00000217    0.00000000    0.00000217
     atom   24 type  1   force =    -0.00000544   -0.00000544   -0.00000000
     atom   25 type  1   force =    -0.00000217   -0.00000217    0.00000000
     atom   26 type  1   force =    -0.00000544    0.00000544   -0.00000000
     atom   27 type  1   force =    -0.00000217    0.00000217    0.00000000
     atom   28 type  1   force =     0.00000544   -0.00000544   -0.00000000
     atom   29 type  1   force =     0.00000217   -0.00000217    0.00000000
     atom   30 type  1   force =     0.00000544    0.00000544   -0.00000000
     atom   31 type  1   force =     0.00000217    0.00000217    0.00000000

     Total force =     0.033816     Total SCF correction =     0.000029


     Computing stress (Cartesian axis) and pressure

          total   stress  (Ry/bohr**3)                   (kbar)     P=       -5.07
  -0.00003446   0.00000000   0.00000000           -5.07        0.00        0.00
   0.00000000  -0.00003446   0.00000000            0.00       -5.07        0.00
   0.00000000   0.00000000  -0.00003446            0.00        0.00       -5.07

     kinetic stress (kbar)   1447.12      0.00      0.00
                                0.00   1447.12      0.00
                                0.00      0.00   1447.12

     local   stress (kbar)    475.78     -0.00      0.00
                               -0.00    475.78      0.00
                                0.00      0.00    475.78

     nonloc. stress (kbar)   1146.91      0.00      0.00
                                0.00   1146.91      0.00
                                0.00      0.00   1146.91

     hartree stress (kbar)     23.13     -0.00     -0.00
                               -0.00     23.13      0.00
                               -0.00      0.00     23.13

     exc-cor stress (kbar)    490.50     -0.00     -0.00
                               -0.00    490.50     -0.00
                               -0.00     -0.00    490.50

     corecor stress (kbar)  -1279.98      0.00     -0.00
                                0.00  -1279.98     -0.00
                               -0.00     -0.00  -1279.98

     ewald   stress (kbar)  -2308.52      0.00     -0.00
                                0.00  -2308.52     -0.00
                               -0.00     -0.00  -2308.52

     hubbard stress (kbar)      0.00      0.00      0.00
                                0.00      0.00      0.00
                                0.00      0.00      0.00

     DFT-D   stress (kbar)      0.00      0.00      0.00
                                0.00      0.00      0.00
                                0.00      0.00      0.00

     XDM     stress (kbar)      0.00      0.00      0.00
                                0.00      0.00      0.00
                                0.00      0.00      0.00

     dft-nl  stress (kbar)      0.00      0.00      0.00
                                0.00      0.00      0.00
                                0.00      0.00      0.00

     TS-vdW  stress (kbar)      0.00      0.00      0.00
                                0.00      0.00      0.00
                                0.00      0.00      0.00

     MDB     stress (kbar)      0.00      0.00      0.00
                                0.00      0.00      0.00
                                0.00      0.00      0.00

     3D-RISM stress (kbar)      0.00      0.00      0.00
                                0.00      0.00      0.00
                                0.00      0.00      0.00


     BFGS Geometry Optimization
     Energy error            =      0.0E+00 Ry
     Gradient error          =      6.9E-03 Ry/Bohr
     Cell gradient error     =      5.1E+00 kbar

     number of scf cycles    =   1
     number of bfgs steps    =   0

     enthalpy           new  =   -1193.9275347554 Ry

     new trust radius        =       0.0101925873 bohr
ibrav =      1
 celldm(1) =     15.16920456
Input lattice vectors:
     0.99913851     0.00000000     0.00000000
     0.00000000     0.99913851     0.00000000
     0.00000000     0.00000000     0.99913851
New lattice vectors in INITIAL alat:
     0.99913851     0.00000000     0.00000000
     0.00000000     0.99913851     0.00000000
     0.00000000     0.00000000     0.99913851
New lattice vectors in NEW alat (for information only):
     1.00000000     0.00000000     0.00000000
     0.00000000     1.00000000     0.00000000
     0.00000000     0.00000000     1.00000000
Discrepancy in bohr =     0.000000    0.000000    0.000000
     new conv_thr            =       0.0000000010 Ry

     new unit-cell volume =   3490.50628 a.u.^3 (   517.23967 Ang^3 )
     density =      2.68709 g/cm^3

CELL_PARAMETERS (alat= 15.18228391)
   0.999138513   0.000000000   0.000000000
   0.000000000   0.999138513   0.000000000
   0.000000000   0.000000000   0.999138513

ATOMIC_POSITIONS (crystal)
Al               0.0000000000        0.0000000000        0.5000000000
Al               0.0000000000        0.5000000000        0.0000000000
Al               0.0000000000        0.5000000000        0.5000000000
Al               0.5000000000        0.0000000000        0.0000000000
Al               0.5000000000        0.0000000000        0.5000000000
Al               0.5000000000        0.5000000000        0.0000000000
Al               0.5000000000        0.5000000000        0.5000000000
Al               0.0000000000        0.2495455458        0.2495455458
Al               0.0000000000        0.2495455458        0.7504544542
Al              -0.0000000000        0.7504544542        0.2495455458
Al              -0.0000000000        0.7504544542        0.7504544542
Al               0.5000000000        0.2500136454        0.2500136454
Al               0.5000000000        0.2500136454        0.7499863546
Al               0.5000000000        0.7499863546        0.2500136454
Al               0.5000000000        0.7499863546        0.7499863546
Al               0.2495455458       -0.0000000000        0.2495455458
Al               0.2495455458        0.0000000000        0.7504544542
Al               0.2500136454        0.5000000000        0.2500136454
Al               0.2500136454        0.5000000000        0.7499863546
Al               0.7504544542       -0.0000000000        0.2495455458
Al               0.7504544542        0.0000000000        0.7504544542
Al               0.7499863546        0.5000000000        0.2500136454
Al               0.7499863546        0.5000000000        0.7499863546
Al               0.2495455458        0.2495455458        0.0000000000
Al               0.2500136454        0.2500136454        0.5000000000
Al               0.2495455458        0.7504544542       -0.0000000000
Al               0.2500136454        0.7499863546        0.5000000000
Al               0.7504544542        0.2495455458        0.0000000000
Al               0.7499863546        0.2500136454        0.5000000000
Al               0.7504544542        0.7504544542       -0.0000000000
Al               0.7499863546        0.7499863546        0.5000000000



     Writing config-only to output data dir ./temp/al-2x2x2-vacancy.save/ :
     XML data file
     NEW-OLD atomic charge density approx. for the potential

     total cpu time spent up to now is      381.7 secs

     Self-consistent Calculation

     iteration #  1     ecut=    40.00 Ry     beta= 0.70
     Davidson diagonalization with overlap

---- Real-time Memory Report at c_bands before calling an iterative solver
           498 MiB given to the printing process from OS
             0 MiB allocation reported by mallinfo(arena+hblkhd)
         16587 MiB available memory on the node where the printing process lives
------------------
     ethr =  1.00E-06,  avg # of iterations =  4.2

     Threshold (ethr) on eigenvalues was too large:
     Diagonalizing with lowered threshold

     Davidson diagonalization with overlap

---- Real-time Memory Report at c_bands before calling an iterative solver
           498 MiB given to the printing process from OS
             0 MiB allocation reported by mallinfo(arena+hblkhd)
         16619 MiB available memory on the node where the printing process lives
------------------
     ethr =  1.24E-08,  avg # of iterations =  9.4

     total cpu time spent up to now is      443.5 secs

     total energy              =   -1193.92882780 Ry
     estimated scf accuracy    <       0.00008526 Ry

     iteration #  2     ecut=    40.00 Ry     beta= 0.70
     Davidson diagonalization with overlap

---- Real-time Memory Report at c_bands before calling an iterative solver
           498 MiB given to the printing process from OS
             0 MiB allocation reported by mallinfo(arena+hblkhd)
         16495 MiB available memory on the node where the printing process lives
------------------
     ethr =  9.17E-08,  avg # of iterations =  5.6

     total cpu time spent up to now is      469.5 secs

     total energy              =   -1193.92879913 Ry
     estimated scf accuracy    <       0.00051145 Ry

     iteration #  3     ecut=    40.00 Ry     beta= 0.70
     Davidson diagonalization with overlap

---- Real-time Memory Report at c_bands before calling an iterative solver
           498 MiB given to the printing process from OS
             0 MiB allocation reported by mallinfo(arena+hblkhd)
         16588 MiB available memory on the node where the printing process lives
------------------
     ethr =  9.17E-08,  avg # of iterations =  4.4

     total cpu time spent up to now is      495.1 secs

     total energy              =   -1193.92887138 Ry
[...]
     atom   15 type  1   force =     0.00000000   -0.00087289   -0.00087289
     atom   16 type  1   force =     0.00487848    0.00000000    0.00487848
     atom   17 type  1   force =     0.00487848    0.00000000   -0.00487848
     atom   18 type  1   force =     0.00087289    0.00000000    0.00087289
     atom   19 type  1   force =     0.00087289   -0.00000000   -0.00087289
     atom   20 type  1   force =    -0.00487848   -0.00000000    0.00487848
     atom   21 type  1   force =    -0.00487848   -0.00000000   -0.00487848
     atom   22 type  1   force =    -0.00087289    0.00000000    0.00087289
     atom   23 type  1   force =    -0.00087289    0.00000000   -0.00087289
     atom   24 type  1   force =     0.00487848    0.00487848    0.00000000
     atom   25 type  1   force =     0.00087289    0.00087289    0.00000000
     atom   26 type  1   force =     0.00487848   -0.00487848    0.00000000
     atom   27 type  1   force =     0.00087289   -0.00087289   -0.00000000
     atom   28 type  1   force =    -0.00487848    0.00487848   -0.00000000
     atom   29 type  1   force =    -0.00087289    0.00087289   -0.00000000
     atom   30 type  1   force =    -0.00487848   -0.00487848    0.00000000
     atom   31 type  1   force =    -0.00087289   -0.00087289    0.00000000
     The ionic contribution  to forces
     atom    1 type  1   force =     0.00000000    0.00000000   -0.00000000
     atom    2 type  1   force =     0.00000000   -0.00000000    0.00000000
     atom    3 type  1   force =     0.00000000   -0.00000000   -0.00000000
     atom    4 type  1   force =    -0.00000000    0.00000000    0.00000000
     atom    5 type  1   force =    -0.00000000    0.00000000   -0.00000000
     atom    6 type  1   force =    -0.00000000   -0.00000000    0.00000000
     atom    7 type  1   force =     0.00000000    0.00000000    0.00000000
     atom    8 type  1   force =    -0.00000000   -0.28050341   -0.28050341
     atom    9 type  1   force =    -0.00000000   -0.28050341    0.28050341
     atom   10 type  1   force =    -0.00000000    0.28050341   -0.28050341
     atom   11 type  1   force =    -0.00000000    0.28050341    0.28050341
     atom   12 type  1   force =     0.00000000   -0.06334036   -0.06334036
     atom   13 type  1   force =     0.00000000   -0.06334036    0.06334036
     atom   14 type  1   force =     0.00000000    0.06334036   -0.06334036
     atom   15 type  1   force =    -0.00000000    0.06334036    0.06334036
     atom   16 type  1   force =    -0.28050341   -0.00000000   -0.28050341
     atom   17 type  1   force =    -0.28050341   -0.00000000    0.28050341
     atom   18 type  1   force =    -0.06334036    0.00000000   -0.06334036
     atom   19 type  1   force =    -0.06334036    0.00000000    0.06334036
     atom   20 type  1   force =     0.28050341   -0.00000000   -0.28050341
     atom   21 type  1   force =     0.28050341   -0.00000000    0.28050341
     atom   22 type  1   force =     0.06334036    0.00000000   -0.06334036
     atom   23 type  1   force =     0.06334036   -0.00000000    0.06334036
     atom   24 type  1   force =    -0.28050341   -0.28050341   -0.00000000
     atom   25 type  1   force =    -0.06334036   -0.06334036    0.00000000
     atom   26 type  1   force =    -0.28050341    0.28050341   -0.00000000
     atom   27 type  1   force =    -0.06334036    0.06334036    0.00000000
     atom   28 type  1   force =     0.28050341   -0.28050341   -0.00000000
     atom   29 type  1   force =     0.06334036   -0.06334036    0.00000000
     atom   30 type  1   force =     0.28050341    0.28050341   -0.00000000
     atom   31 type  1   force =     0.06334036    0.06334036    0.00000000
     The local contribution  to forces
     atom    1 type  1   force =     0.00000000    0.00000000    0.00000000
     atom    2 type  1   force =     0.00000000    0.00000000    0.00000000
     atom    3 type  1   force =     0.00000000   -0.00000000   -0.00000000
     atom    4 type  1   force =     0.00000000   -0.00000000    0.00000000
     atom    5 type  1   force =    -0.00000000    0.00000000   -0.00000000
     atom    6 type  1   force =    -0.00000000   -0.00000000    0.00000000
     atom    7 type  1   force =    -0.00000000   -0.00000000   -0.00000000
     atom    8 type  1   force =     0.00000000    0.27562462    0.27562462
     atom    9 type  1   force =     0.00000000    0.27562462   -0.27562462
     atom   10 type  1   force =     0.00000000   -0.27562462    0.27562462
     atom   11 type  1   force =     0.00000000   -0.27562462   -0.27562462
     atom   12 type  1   force =    -0.00000000    0.06250435    0.06250435
     atom   13 type  1   force =    -0.00000000    0.06250435   -0.06250435
     atom   14 type  1   force =    -0.00000000   -0.06250435    0.06250435
     atom   15 type  1   force =     0.00000000   -0.06250435   -0.06250435
     atom   16 type  1   force =     0.27562462    0.00000000    0.27562462
     atom   17 type  1   force =     0.27562462   -0.00000000   -0.27562462
     atom   18 type  1   force =     0.06250435   -0.00000000    0.06250435
     atom   19 type  1   force =     0.06250435   -0.00000000   -0.06250435
     atom   20 type  1   force =    -0.27562462    0.00000000    0.27562462
     atom   21 type  1   force =    -0.27562462    0.00000000   -0.27562462
     atom   22 type  1   force =    -0.06250435   -0.00000000    0.06250435
     atom   23 type  1   force =    -0.06250435    0.00000000   -0.06250435
     atom   24 type  1   force =     0.27562462    0.27562462    0.00000000
     atom   25 type  1   force =     0.06250435    0.06250435   -0.00000000
     atom   26 type  1   force =     0.27562462   -0.27562462    0.00000000
     atom   27 type  1   force =     0.06250435   -0.06250435   -0.00000000
     atom   28 type  1   force =    -0.27562462    0.27562462    0.00000000
     atom   29 type  1   force =    -0.06250435    0.06250435   -0.00000000
     atom   30 type  1   force =    -0.27562462   -0.27562462    0.00000000
     atom   31 type  1   force =    -0.06250435   -0.06250435    0.00000000
     The core correction contribution to forces
     atom    1 type  1   force =    -0.00000000   -0.00000000   -0.00000000
     atom    2 type  1   force =    -0.00000000   -0.00000000   -0.00000000
     atom    3 type  1   force =    -0.00000000    0.00000000   -0.00000000
     atom    4 type  1   force =    -0.00000000   -0.00000000   -0.00000000
     atom    5 type  1   force =     0.00000000   -0.00000000    0.00000000
     atom    6 type  1   force =     0.00000000    0.00000000   -0.00000000
     atom    7 type  1   force =     0.00000000    0.00000000   -0.00000000
     atom    8 type  1   force =    -0.00000000   -0.00000482   -0.00000482
     atom    9 type  1   force =    -0.00000000   -0.00000482    0.00000482
     atom   10 type  1   force =    -0.00000000    0.00000482   -0.00000482
     atom   11 type  1   force =    -0.00000000    0.00000482    0.00000482
     atom   12 type  1   force =    -0.00000000   -0.00003175   -0.00003175
     atom   13 type  1   force =    -0.00000000   -0.00003175    0.00003175
     atom   14 type  1   force =    -0.00000000    0.00003175   -0.00003175
     atom   15 type  1   force =     0.00000000    0.00003175    0.00003175
     atom   16 type  1   force =    -0.00000482   -0.00000000   -0.00000482
     atom   17 type  1   force =    -0.00000482   -0.00000000    0.00000482
     atom   18 type  1   force =    -0.00003175   -0.00000000   -0.00003175
     atom   19 type  1   force =    -0.00003175   -0.00000000    0.00003175
     atom   20 type  1   force =     0.00000482   -0.00000000   -0.00000482
     atom   21 type  1   force =     0.00000482   -0.00000000    0.00000482
     atom   22 type  1   force =     0.00003175   -0.00000000   -0.00003175
     atom   23 type  1   force =     0.00003175    0.00000000    0.00003175
     atom   24 type  1   force =    -0.00000482   -0.00000482   -0.00000000
     atom   25 type  1   force =    -0.00003175   -0.00003175   -0.00000000
     atom   26 type  1   force =    -0.00000482    0.00000482   -0.00000000
     atom   27 type  1   force =    -0.00003175    0.00003175   -0.00000000
     atom   28 type  1   force =     0.00000482   -0.00000482   -0.00000000
     atom   29 type  1   force =     0.00003175   -0.00003175   -0.00000000
     atom   30 type  1   force =     0.00000482    0.00000482   -0.00000000
     atom   31 type  1   force =     0.00003175    0.00003175   -0.00000000
     The Hubbard contrib.    to forces
     atom    1 type  1   force =     0.00000000    0.00000000    0.00000000
     atom    2 type  1   force =     0.00000000    0.00000000    0.00000000
     atom    3 type  1   force =     0.00000000    0.00000000    0.00000000
     atom    4 type  1   force =     0.00000000    0.00000000    0.00000000
     atom    5 type  1   force =     0.00000000    0.00000000    0.00000000
     atom    6 type  1   force =     0.00000000    0.00000000    0.00000000
     atom    7 type  1   force =     0.00000000    0.00000000    0.00000000
     atom    8 type  1   force =     0.00000000    0.00000000    0.00000000
     atom    9 type  1   force =     0.00000000    0.00000000    0.00000000
     atom   10 type  1   force =     0.00000000    0.00000000    0.00000000
     atom   11 type  1   force =     0.00000000    0.00000000    0.00000000
     atom   12 type  1   force =     0.00000000    0.00000000    0.00000000
     atom   13 type  1   force =     0.00000000    0.00000000    0.00000000
     atom   14 type  1   force =     0.00000000    0.00000000    0.00000000
     atom   15 type  1   force =     0.00000000    0.00000000    0.00000000
     atom   16 type  1   force =     0.00000000    0.00000000    0.00000000
     atom   17 type  1   force =     0.00000000    0.00000000    0.00000000
     atom   18 type  1   force =     0.00000000    0.00000000    0.00000000
     atom   19 type  1   force =     0.00000000    0.00000000    0.00000000
     atom   20 type  1   force =     0.00000000    0.00000000    0.00000000
     atom   21 type  1   force =     0.00000000    0.00000000    0.00000000
     atom   22 type  1   force =     0.00000000    0.00000000    0.00000000
     atom   23 type  1   force =     0.00000000    0.00000000    0.00000000
     atom   24 type  1   force =     0.00000000    0.00000000    0.00000000
     atom   25 type  1   force =     0.00000000    0.00000000    0.00000000
     atom   26 type  1   force =     0.00000000    0.00000000    0.00000000
     atom   27 type  1   force =     0.00000000    0.00000000    0.00000000
     atom   28 type  1   force =     0.00000000    0.00000000    0.00000000
     atom   29 type  1   force =     0.00000000    0.00000000    0.00000000
     atom   30 type  1   force =     0.00000000    0.00000000    0.00000000
     atom   31 type  1   force =     0.00000000    0.00000000    0.00000000
     The SCF correction term to forces
     atom    1 type  1   force =    -0.00000000   -0.00000000   -0.00000000
     atom    2 type  1   force =    -0.00000000   -0.00000000   -0.00000000
     atom    3 type  1   force =     0.00000000   -0.00000000    0.00000000
     atom    4 type  1   force =    -0.00000000    0.00000000    0.00000000
     atom    5 type  1   force =     0.00000000    0.00000000    0.00000000
     atom    6 type  1   force =    -0.00000000    0.00000000    0.00000000
     atom    7 type  1   force =     0.00000000   -0.00000000   -0.00000000
     atom    8 type  1   force =    -0.00000000   -0.00000001   -0.00000001
     atom    9 type  1   force =    -0.00000000   -0.00000001    0.00000001
     atom   10 type  1   force =    -0.00000000    0.00000001   -0.00000001
     atom   11 type  1   force =    -0.00000000    0.00000001    0.00000001
     atom   12 type  1   force =     0.00000000    0.00000006    0.00000006
     atom   13 type  1   force =     0.00000000    0.00000006   -0.00000006
     atom   14 type  1   force =    -0.00000000   -0.00000006    0.00000006
     atom   15 type  1   force =    -0.00000000   -0.00000006   -0.00000006
     atom   16 type  1   force =    -0.00000001    0.00000000   -0.00000001
     atom   17 type  1   force =    -0.00000001   -0.00000000    0.00000001
     atom   18 type  1   force =     0.00000006    0.00000000    0.00000006
     atom   19 type  1   force =     0.00000006   -0.00000000   -0.00000006
     atom   20 type  1   force =     0.00000001   -0.00000000   -0.00000001
     atom   21 type  1   force =     0.00000001    0.00000000    0.00000001
     atom   22 type  1   force =    -0.00000006   -0.00000000    0.00000006
     atom   23 type  1   force =    -0.00000006    0.00000000   -0.00000006
     atom   24 type  1   force =    -0.00000001   -0.00000001    0.00000000
     atom   25 type  1   force =     0.00000006    0.00000006    0.00000000
     atom   26 type  1   force =    -0.00000001    0.00000001    0.00000000
     atom   27 type  1   force =     0.00000006   -0.00000006   -0.00000000
     atom   28 type  1   force =     0.00000001   -0.00000001    0.00000000
     atom   29 type  1   force =    -0.00000006    0.00000006   -0.00000000
     atom   30 type  1   force =     0.00000001    0.00000001    0.00000000
     atom   31 type  1   force =    -0.00000006   -0.00000006    0.00000000

     Total force =     0.000036     Total SCF correction =     0.000000


     Computing stress (Cartesian axis) and pressure

          total   stress  (Ry/bohr**3)                   (kbar)     P=       -0.01
  -0.00000007   0.00000000   0.00000000           -0.01        0.00        0.00
   0.00000000  -0.00000007   0.00000000            0.00       -0.01        0.00
   0.00000000   0.00000000  -0.00000007            0.00        0.00       -0.01

     kinetic stress (kbar)   1466.05      0.00      0.00
                                0.00   1466.05      0.00
                                0.00      0.00   1466.05

     local   stress (kbar)    499.13     -0.00      0.00
                               -0.00    499.13      0.00
                                0.00      0.00    499.13

     nonloc. stress (kbar)   1158.88      0.00      0.00
                                0.00   1158.88      0.00
                                0.00      0.00   1158.88

     hartree stress (kbar)     17.12     -0.00     -0.00
                               -0.00     17.12     -0.00
                               -0.00     -0.00     17.12

     exc-cor stress (kbar)    493.63      0.00      0.00
                                0.00    493.63     -0.00
                                0.00     -0.00    493.63

     corecor stress (kbar)  -1291.84     -0.00     -0.00
                               -0.00  -1291.84      0.00
                               -0.00      0.00  -1291.84

     ewald   stress (kbar)  -2342.97     -0.00      0.00
                               -0.00  -2342.97      0.00
                                0.00      0.00  -2342.97

     hubbard stress (kbar)      0.00      0.00      0.00
                                0.00      0.00      0.00
                                0.00      0.00      0.00

     DFT-D   stress (kbar)      0.00      0.00      0.00
                                0.00      0.00      0.00
                                0.00      0.00      0.00

     XDM     stress (kbar)      0.00      0.00      0.00
                                0.00      0.00      0.00
                                0.00      0.00      0.00

     dft-nl  stress (kbar)      0.00      0.00      0.00
                                0.00      0.00      0.00
                                0.00      0.00      0.00

     TS-vdW  stress (kbar)      0.00      0.00      0.00
                                0.00      0.00      0.00
                                0.00      0.00      0.00

     MDB     stress (kbar)      0.00      0.00      0.00
                                0.00      0.00      0.00
                                0.00      0.00      0.00

     3D-RISM stress (kbar)      0.00      0.00      0.00
                                0.00      0.00      0.00
                                0.00      0.00      0.00


     Writing all to output data dir ./temp/al-2x2x2-vacancy.save/ :
     XML data file, charge density, pseudopotentials, collected wavefunctions

     init_run     :     31.15s CPU     31.67s WALL (       2 calls)
     electrons    :   3624.15s CPU   3643.58s WALL (      13 calls)
     update_pot   :     10.82s CPU     10.94s WALL (      11 calls)
     forces       :    121.08s CPU    122.43s WALL (      13 calls)
     stress       :    290.96s CPU    295.14s WALL (      13 calls)

     Called by init_run:
     wfcinit      :     27.13s CPU     27.40s WALL (       2 calls)
     wfcinit:atom :      0.03s CPU      0.04s WALL (       4 calls)
     wfcinit:wfcr :     26.77s CPU     26.94s WALL (       4 calls)
     potinit      :      1.86s CPU      1.98s WALL (       2 calls)
     hinit0       :      0.62s CPU      0.64s WALL (       2 calls)

     Called by electrons:
     c_bands      :   3044.57s CPU   3051.50s WALL (     138 calls)
     sum_band     :    380.55s CPU    386.66s WALL (     138 calls)
     v_of_rho     :     44.36s CPU     46.54s WALL (     142 calls)
     v_h          :      2.99s CPU      3.21s WALL (     142 calls)
     v_xc         :     48.93s CPU     51.17s WALL (     168 calls)
     newd         :     90.43s CPU     94.88s WALL (     142 calls)
     PAW_pot      :     77.02s CPU     77.06s WALL (     153 calls)
     mix_rho      :      2.99s CPU      3.07s WALL (     138 calls)

     Called by c_bands:
     init_us_2    :     20.88s CPU     20.98s WALL (     630 calls)
     cegterg      :   2720.90s CPU   2727.72s WALL (     277 calls)

     Called by sum_band:
     sum_band:wei :      0.12s CPU      0.12s WALL (     138 calls)
     sum_band:loo :    267.15s CPU    267.90s WALL (     138 calls)
     sum_band:buf :      0.90s CPU      0.90s WALL (     276 calls)
     sum_band:ini :      9.46s CPU      9.46s WALL (     276 calls)
     sum_band:cal :    217.60s CPU    217.68s WALL (     298 calls)
     sum_band:bec :      0.29s CPU      0.29s WALL (     298 calls)
     addusdens    :     95.39s CPU    100.05s WALL (     138 calls)
                                        0.00s GPU  (     138 calls)
     addusd:skk   :      0.42s CPU      0.55s WALL (     138 calls)
                                        0.00s GPU  (     138 calls)

     Called by *egterg:
     cdiaghg      :     10.50s CPU     10.52s WALL (    1840 calls)
     cegterg:over :    279.08s CPU    279.18s WALL (    1604 calls)
     cegterg:upda :     80.78s CPU     80.97s WALL (    1604 calls)
     cegterg:last :    203.02s CPU    203.06s WALL (     805 calls)
     h_psi        :   1463.96s CPU   1469.31s WALL (    1885 calls)
     s_psi        :    553.99s CPU    554.17s WALL (    1885 calls)
     g_psi        :      2.19s CPU      2.19s WALL (    1604 calls)

     Called by h_psi:
     h_psi:calbec :    647.90s CPU    648.29s WALL (    1885 calls)
     vloc_psi     :    241.49s CPU    245.71s WALL (    1885 calls)
     add_vuspsi   :    573.33s CPU    573.56s WALL (    1885 calls)

     General routines
     calbec       :    981.07s CPU    981.58s WALL (    2313 calls)
     fft          :     36.78s CPU     39.02s WALL (    2165 calls)
     ffts         :      1.64s CPU      1.70s WALL (     280 calls)
     fftw         :    230.91s CPU    235.04s WALL (  117028 calls)
     interpolate  :      4.60s CPU      4.78s WALL (     142 calls)

     Parallel routines

     PAW routines
     PAW_pot      :     77.02s CPU     77.06s WALL (     153 calls)
     PAW_symme    :      0.30s CPU      0.31s WALL (     291 calls)

     PWSCF        :      1h 8m CPU      1h 8m WALL


   This run was terminated on:  19: 0:42   4Jan2026            

=------------------------------------------------------------------------------=
   JOB DONE.
=------------------------------------------------------------------------------=
