 INFO
nunit      1    1    1
unit   cell
celltype   primcell
shape   parapipedal
 END_INFO
 DIM-GROUP
           3           1
 PRIMVEC
    7.2560159810   -0.0166509960    0.0290531720
    3.6135870380    6.2922221920    0.0290531720
    1.8234640770    1.0527764640    2.9753718720
 CONVVEC
    7.2560159810   -0.0166509960    0.0290531720
    3.6135870380    6.2922221920    0.0290531720
    1.8234640770    1.0527764640    2.9753718720
 PRIMCOORD
           8           1
 25      5.4446296660     3.1434596890     2.2535831880     0.0001356500     0.0000777800    -0.0000612000
 25      7.2514220440     6.2895696940     2.2681123490     0.0001359000     0.0000786200    -0.0000616600
 25      9.0726389870     3.1351321400     2.2681114570     0.0001355900     0.0000781500    -0.0000612900
 25     10.8794316170     6.2812423630     2.2826403250     0.0001353500     0.0000786200    -0.0000613100
 16     -0.0009325660    -0.0005375500    -0.0002591050    -0.0001357400    -0.0000783500     0.0000614600
 16      1.8058602720     3.1455724400     0.0142697570    -0.0001357500    -0.0000780700     0.0000613700
 16      3.6270762050    -0.0088647950     0.0142694160    -0.0001355400    -0.0000785200     0.0000614000
 16      5.4338688390     3.1372451320     0.0287983620    -0.0001354500    -0.0000782300     0.0000612400
 CONVCOORD
           8           1
 25      5.4446296660     3.1434596890     2.2535831880
 25      7.2514220440     6.2895696940     2.2681123490
 25      9.0726389870     3.1351321400     2.2681114570
 25     10.8794316170     6.2812423630     2.2826403250
 16     -0.0009325660    -0.0005375500    -0.0002591050
 16      1.8058602720     3.1455724400     0.0142697570
 16      3.6270762050    -0.0088647950     0.0142694160
 16      5.4338688390     3.1372451320     0.0287983620
 RECIP-PRIMVEC
    0.1378620863   -0.0789122133   -0.0565675984

    0.0005910191    0.1588481358   -0.0565674773

   -0.0013519325   -0.0007805384    0.3371971558

 RECIP-CONVVEC
    0.1378620863   -0.0789122133   -0.0565675984

    0.0005910191    0.1588481358   -0.0565674773

   -0.0013519325   -0.0007805384    0.3371971558

 WIGNER-SEITZ-PRIMCELL
           4
 -0.1798604E+01  0.3167491E+01  0.2209582E+01  -0.8661693E+00  0.1705101E+00  0.4697628E+00
 -0.3618265E+01  0.2116909E+01 -0.7642587E+00  -0.8661693E+00  0.1705101E+00  0.4697628E+00
 -0.3633948E+01 -0.2098063E+01  0.7367368E+00  -0.8661693E+00  0.1705101E+00  0.4697628E+00
 -0.1814287E+01 -0.1047482E+01  0.3710577E+01  -0.8661693E+00  0.1705101E+00  0.4697628E+00
           4
 -0.1794801E+01  0.3169686E+01  0.2211113E+01  -0.4976482E+00  0.2926254E+00  0.8165272E+00
 -0.1794803E+01  0.3169686E+01  0.2211112E+01  -0.4976482E+00  0.2926254E+00  0.8165272E+00
 -0.1814287E+01 -0.1047482E+01  0.3710577E+01  -0.4976482E+00  0.2926254E+00  0.8165272E+00
 -0.1814285E+01 -0.1047482E+01  0.3710578E+01  -0.4976482E+00  0.2926254E+00  0.8165272E+00
           6
 -0.2416370E-01  0.4191964E+01  0.7642587E+00  -0.4999999E+00  0.8660254E+00  0.7052585E-15
 -0.1843825E+01  0.3141383E+01 -0.2209582E+01  -0.4999999E+00  0.8660254E+00  0.7052585E-15
 -0.1847626E+01  0.3139188E+01 -0.2211112E+01  -0.4999999E+00  0.8660254E+00  0.7052585E-15
 -0.3618265E+01  0.2116909E+01 -0.7642587E+00  -0.4999999E+00  0.8660254E+00  0.7052585E-15
 -0.1798604E+01  0.3167491E+01  0.2209582E+01  -0.4999999E+00  0.8660254E+00  0.7052585E-15
 -0.1794803E+01  0.3169686E+01  0.2211112E+01  -0.4999999E+00  0.8660254E+00  0.7052585E-15
           6
 -0.1814285E+01 -0.1047482E+01  0.3710578E+01  -0.2854181E+00 -0.8353799E+00  0.4697626E+00
 -0.1814287E+01 -0.1047482E+01  0.3710577E+01  -0.2854181E+00 -0.8353799E+00  0.4697626E+00
 -0.3633948E+01 -0.2098063E+01  0.7367368E+00  -0.2854181E+00 -0.8353799E+00  0.4697626E+00
  0.2416229E-01 -0.4191964E+01 -0.7642596E+00  -0.2854181E+00 -0.8353799E+00  0.4697626E+00
  0.2416370E-01 -0.4191964E+01 -0.7642587E+00  -0.2854181E+00 -0.8353799E+00  0.4697626E+00
  0.1843825E+01 -0.3141383E+01  0.2209582E+01  -0.2854181E+00 -0.8353799E+00  0.4697626E+00
           6
 -0.1847626E+01  0.3139188E+01 -0.2211112E+01  -0.5002612E+00 -0.2888257E+00 -0.8162833E+00
  0.1810484E+01  0.1045287E+01 -0.3712109E+01  -0.5002612E+00 -0.2888257E+00 -0.8162833E+00
  0.1794801E+01 -0.3169686E+01 -0.2211113E+01  -0.5002612E+00 -0.2888257E+00 -0.8162833E+00
  0.2416229E-01 -0.4191964E+01 -0.7642596E+00  -0.5002612E+00 -0.2888257E+00 -0.8162833E+00
 -0.3633948E+01 -0.2098063E+01  0.7367368E+00  -0.5002612E+00 -0.2888257E+00 -0.8162833E+00
 -0.3618265E+01  0.2116909E+01 -0.7642587E+00  -0.5002612E+00 -0.2888257E+00 -0.8162833E+00
           4
 -0.1794801E+01  0.3169686E+01  0.2211113E+01  -0.2232988E+00  0.9037268E+00  0.3652610E+00
 -0.2416229E-01  0.4191964E+01  0.7642596E+00  -0.2232988E+00  0.9037268E+00  0.3652610E+00
 -0.2416370E-01  0.4191964E+01  0.7642587E+00  -0.2232988E+00  0.9037268E+00  0.3652610E+00
 -0.1794803E+01  0.3169686E+01  0.2211112E+01  -0.2232988E+00  0.9037268E+00  0.3652610E+00
           6
 -0.1794801E+01  0.3169686E+01  0.2211113E+01   0.5002612E+00  0.2888257E+00  0.8162833E+00
 -0.1810484E+01 -0.1045287E+01  0.3712109E+01   0.5002612E+00  0.2888257E+00  0.8162833E+00
  0.1847626E+01 -0.3139188E+01  0.2211112E+01   0.5002612E+00  0.2888257E+00  0.8162833E+00
  0.3618265E+01 -0.2116909E+01  0.7642587E+00   0.5002612E+00  0.2888257E+00  0.8162833E+00
  0.3633948E+01  0.2098063E+01 -0.7367368E+00   0.5002612E+00  0.2888257E+00  0.8162833E+00
 -0.2416229E-01  0.4191964E+01  0.7642596E+00   0.5002612E+00  0.2888257E+00  0.8162833E+00
           4
 -0.1814285E+01 -0.1047482E+01  0.3710578E+01   0.4597322E-02 -0.5772892E+00  0.8165268E+00
  0.1843825E+01 -0.3141383E+01  0.2209582E+01   0.4597322E-02 -0.5772892E+00  0.8165268E+00
  0.1847626E+01 -0.3139188E+01  0.2211112E+01   0.4597322E-02 -0.5772892E+00  0.8165268E+00
 -0.1810484E+01 -0.1045287E+01  0.3712109E+01   0.4597322E-02 -0.5772892E+00  0.8165268E+00
           6
  0.3633948E+01  0.2098063E+01 -0.7367368E+00   0.2854181E+00  0.8353799E+00 -0.4697626E+00
  0.1814287E+01  0.1047482E+01 -0.3710577E+01   0.2854181E+00  0.8353799E+00 -0.4697626E+00
  0.1814285E+01  0.1047482E+01 -0.3710578E+01   0.2854181E+00  0.8353799E+00 -0.4697626E+00
 -0.1843825E+01  0.3141383E+01 -0.2209582E+01   0.2854181E+00  0.8353799E+00 -0.4697626E+00
 -0.2416370E-01  0.4191964E+01  0.7642587E+00   0.2854181E+00  0.8353799E+00 -0.4697626E+00
 -0.2416229E-01  0.4191964E+01  0.7642596E+00   0.2854181E+00  0.8353799E+00 -0.4697626E+00
           4
 -0.1843825E+01  0.3141383E+01 -0.2209582E+01  -0.4597322E-02  0.5772892E+00 -0.8165268E+00
  0.1814285E+01  0.1047482E+01 -0.3710578E+01  -0.4597322E-02  0.5772892E+00 -0.8165268E+00
  0.1810484E+01  0.1045287E+01 -0.3712109E+01  -0.4597322E-02  0.5772892E+00 -0.8165268E+00
 -0.1847626E+01  0.3139188E+01 -0.2211112E+01  -0.4597322E-02  0.5772892E+00 -0.8165268E+00
           6
  0.1847626E+01 -0.3139188E+01  0.2211112E+01   0.4999999E+00 -0.8660254E+00  0.8057578E-13
  0.1843825E+01 -0.3141383E+01  0.2209582E+01   0.4999999E+00 -0.8660254E+00  0.8057578E-13
  0.2416370E-01 -0.4191964E+01 -0.7642587E+00   0.4999999E+00 -0.8660254E+00  0.8057578E-13
  0.1794803E+01 -0.3169686E+01 -0.2211112E+01   0.4999999E+00 -0.8660254E+00  0.8057578E-13
  0.1798604E+01 -0.3167491E+01 -0.2209582E+01   0.4999999E+00 -0.8660254E+00  0.8057578E-13
  0.3618265E+01 -0.2116909E+01  0.7642587E+00   0.4999999E+00 -0.8660254E+00  0.8057578E-13
           4
  0.2416229E-01 -0.4191964E+01 -0.7642596E+00   0.2232988E+00 -0.9037268E+00 -0.3652610E+00
  0.1794801E+01 -0.3169686E+01 -0.2211113E+01   0.2232988E+00 -0.9037268E+00 -0.3652610E+00
  0.1794803E+01 -0.3169686E+01 -0.2211112E+01   0.2232988E+00 -0.9037268E+00 -0.3652610E+00
  0.2416370E-01 -0.4191964E+01 -0.7642587E+00   0.2232988E+00 -0.9037268E+00 -0.3652610E+00
           4
  0.1794801E+01 -0.3169686E+01 -0.2211113E+01   0.4976482E+00 -0.2926254E+00 -0.8165272E+00
  0.1810484E+01  0.1045287E+01 -0.3712109E+01   0.4976482E+00 -0.2926254E+00 -0.8165272E+00
  0.1814287E+01  0.1047482E+01 -0.3710577E+01   0.4976482E+00 -0.2926254E+00 -0.8165272E+00
  0.1794803E+01 -0.3169686E+01 -0.2211112E+01   0.4976482E+00 -0.2926254E+00 -0.8165272E+00
           4
  0.3618265E+01 -0.2116909E+01  0.7642587E+00   0.8661693E+00 -0.1705101E+00 -0.4697628E+00
  0.1798604E+01 -0.3167491E+01 -0.2209582E+01   0.8661693E+00 -0.1705101E+00 -0.4697628E+00
  0.1814287E+01  0.1047482E+01 -0.3710577E+01   0.8661693E+00 -0.1705101E+00 -0.4697628E+00
  0.3633948E+01  0.2098063E+01 -0.7367368E+00   0.8661693E+00 -0.1705101E+00 -0.4697628E+00
 WIGNER-SEITZ-PRIMCELL_END
 WIGNER-SEITZ-CONVCELL
           4
 -0.1798604E+01  0.3167491E+01  0.2209582E+01  -0.8661693E+00  0.1705101E+00  0.4697628E+00
 -0.3618265E+01  0.2116909E+01 -0.7642587E+00  -0.8661693E+00  0.1705101E+00  0.4697628E+00
 -0.3633948E+01 -0.2098063E+01  0.7367368E+00  -0.8661693E+00  0.1705101E+00  0.4697628E+00
 -0.1814287E+01 -0.1047482E+01  0.3710577E+01  -0.8661693E+00  0.1705101E+00  0.4697628E+00
           4
 -0.1794801E+01  0.3169686E+01  0.2211113E+01  -0.4976482E+00  0.2926254E+00  0.8165272E+00
 -0.1794803E+01  0.3169686E+01  0.2211112E+01  -0.4976482E+00  0.2926254E+00  0.8165272E+00
 -0.1814287E+01 -0.1047482E+01  0.3710577E+01  -0.4976482E+00  0.2926254E+00  0.8165272E+00
 -0.1814285E+01 -0.1047482E+01  0.3710578E+01  -0.4976482E+00  0.2926254E+00  0.8165272E+00
           6
 -0.2416370E-01  0.4191964E+01  0.7642587E+00  -0.4999999E+00  0.8660254E+00  0.7052585E-15
 -0.1843825E+01  0.3141383E+01 -0.2209582E+01  -0.4999999E+00  0.8660254E+00  0.7052585E-15
 -0.1847626E+01  0.3139188E+01 -0.2211112E+01  -0.4999999E+00  0.8660254E+00  0.7052585E-15
 -0.3618265E+01  0.2116909E+01 -0.7642587E+00  -0.4999999E+00  0.8660254E+00  0.7052585E-15
 -0.1798604E+01  0.3167491E+01  0.2209582E+01  -0.4999999E+00  0.8660254E+00  0.7052585E-15
 -0.1794803E+01  0.3169686E+01  0.2211112E+01  -0.4999999E+00  0.8660254E+00  0.7052585E-15
           6
 -0.1814285E+01 -0.1047482E+01  0.3710578E+01  -0.2854181E+00 -0.8353799E+00  0.4697626E+00
 -0.1814287E+01 -0.1047482E+01  0.3710577E+01  -0.2854181E+00 -0.8353799E+00  0.4697626E+00
 -0.3633948E+01 -0.2098063E+01  0.7367368E+00  -0.2854181E+00 -0.8353799E+00  0.4697626E+00
  0.2416229E-01 -0.4191964E+01 -0.7642596E+00  -0.2854181E+00 -0.8353799E+00  0.4697626E+00
  0.2416370E-01 -0.4191964E+01 -0.7642587E+00  -0.2854181E+00 -0.8353799E+00  0.4697626E+00
  0.1843825E+01 -0.3141383E+01  0.2209582E+01  -0.2854181E+00 -0.8353799E+00  0.4697626E+00
           6
 -0.1847626E+01  0.3139188E+01 -0.2211112E+01  -0.5002612E+00 -0.2888257E+00 -0.8162833E+00
  0.1810484E+01  0.1045287E+01 -0.3712109E+01  -0.5002612E+00 -0.2888257E+00 -0.8162833E+00
  0.1794801E+01 -0.3169686E+01 -0.2211113E+01  -0.5002612E+00 -0.2888257E+00 -0.8162833E+00
  0.2416229E-01 -0.4191964E+01 -0.7642596E+00  -0.5002612E+00 -0.2888257E+00 -0.8162833E+00
 -0.3633948E+01 -0.2098063E+01  0.7367368E+00  -0.5002612E+00 -0.2888257E+00 -0.8162833E+00
 -0.3618265E+01  0.2116909E+01 -0.7642587E+00  -0.5002612E+00 -0.2888257E+00 -0.8162833E+00
           4
 -0.1794801E+01  0.3169686E+01  0.2211113E+01  -0.2232988E+00  0.9037268E+00  0.3652610E+00
 -0.2416229E-01  0.4191964E+01  0.7642596E+00  -0.2232988E+00  0.9037268E+00  0.3652610E+00
 -0.2416370E-01  0.4191964E+01  0.7642587E+00  -0.2232988E+00  0.9037268E+00  0.3652610E+00
 -0.1794803E+01  0.3169686E+01  0.2211112E+01  -0.2232988E+00  0.9037268E+00  0.3652610E+00
           6
 -0.1794801E+01  0.3169686E+01  0.2211113E+01   0.5002612E+00  0.2888257E+00  0.8162833E+00
 -0.1810484E+01 -0.1045287E+01  0.3712109E+01   0.5002612E+00  0.2888257E+00  0.8162833E+00
  0.1847626E+01 -0.3139188E+01  0.2211112E+01   0.5002612E+00  0.2888257E+00  0.8162833E+00
  0.3618265E+01 -0.2116909E+01  0.7642587E+00   0.5002612E+00  0.2888257E+00  0.8162833E+00
  0.3633948E+01  0.2098063E+01 -0.7367368E+00   0.5002612E+00  0.2888257E+00  0.8162833E+00
 -0.2416229E-01  0.4191964E+01  0.7642596E+00   0.5002612E+00  0.2888257E+00  0.8162833E+00
           4
 -0.1814285E+01 -0.1047482E+01  0.3710578E+01   0.4597322E-02 -0.5772892E+00  0.8165268E+00
  0.1843825E+01 -0.3141383E+01  0.2209582E+01   0.4597322E-02 -0.5772892E+00  0.8165268E+00
  0.1847626E+01 -0.3139188E+01  0.2211112E+01   0.4597322E-02 -0.5772892E+00  0.8165268E+00
 -0.1810484E+01 -0.1045287E+01  0.3712109E+01   0.4597322E-02 -0.5772892E+00  0.8165268E+00
           6
  0.3633948E+01  0.2098063E+01 -0.7367368E+00   0.2854181E+00  0.8353799E+00 -0.4697626E+00
  0.1814287E+01  0.1047482E+01 -0.3710577E+01   0.2854181E+00  0.8353799E+00 -0.4697626E+00
  0.1814285E+01  0.1047482E+01 -0.3710578E+01   0.2854181E+00  0.8353799E+00 -0.4697626E+00
 -0.1843825E+01  0.3141383E+01 -0.2209582E+01   0.2854181E+00  0.8353799E+00 -0.4697626E+00
 -0.2416370E-01  0.4191964E+01  0.7642587E+00   0.2854181E+00  0.8353799E+00 -0.4697626E+00
 -0.2416229E-01  0.4191964E+01  0.7642596E+00   0.2854181E+00  0.8353799E+00 -0.4697626E+00
           4
 -0.1843825E+01  0.3141383E+01 -0.2209582E+01  -0.4597322E-02  0.5772892E+00 -0.8165268E+00
  0.1814285E+01  0.1047482E+01 -0.3710578E+01  -0.4597322E-02  0.5772892E+00 -0.8165268E+00
  0.1810484E+01  0.1045287E+01 -0.3712109E+01  -0.4597322E-02  0.5772892E+00 -0.8165268E+00
 -0.1847626E+01  0.3139188E+01 -0.2211112E+01  -0.4597322E-02  0.5772892E+00 -0.8165268E+00
           6
  0.1847626E+01 -0.3139188E+01  0.2211112E+01   0.4999999E+00 -0.8660254E+00  0.8057578E-13
  0.1843825E+01 -0.3141383E+01  0.2209582E+01   0.4999999E+00 -0.8660254E+00  0.8057578E-13
  0.2416370E-01 -0.4191964E+01 -0.7642587E+00   0.4999999E+00 -0.8660254E+00  0.8057578E-13
  0.1794803E+01 -0.3169686E+01 -0.2211112E+01   0.4999999E+00 -0.8660254E+00  0.8057578E-13
  0.1798604E+01 -0.3167491E+01 -0.2209582E+01   0.4999999E+00 -0.8660254E+00  0.8057578E-13
  0.3618265E+01 -0.2116909E+01  0.7642587E+00   0.4999999E+00 -0.8660254E+00  0.8057578E-13
           4
  0.2416229E-01 -0.4191964E+01 -0.7642596E+00   0.2232988E+00 -0.9037268E+00 -0.3652610E+00
  0.1794801E+01 -0.3169686E+01 -0.2211113E+01   0.2232988E+00 -0.9037268E+00 -0.3652610E+00
  0.1794803E+01 -0.3169686E+01 -0.2211112E+01   0.2232988E+00 -0.9037268E+00 -0.3652610E+00
  0.2416370E-01 -0.4191964E+01 -0.7642587E+00   0.2232988E+00 -0.9037268E+00 -0.3652610E+00
           4
  0.1794801E+01 -0.3169686E+01 -0.2211113E+01   0.4976482E+00 -0.2926254E+00 -0.8165272E+00
  0.1810484E+01  0.1045287E+01 -0.3712109E+01   0.4976482E+00 -0.2926254E+00 -0.8165272E+00
  0.1814287E+01  0.1047482E+01 -0.3710577E+01   0.4976482E+00 -0.2926254E+00 -0.8165272E+00
  0.1794803E+01 -0.3169686E+01 -0.2211112E+01   0.4976482E+00 -0.2926254E+00 -0.8165272E+00
           4
  0.3618265E+01 -0.2116909E+01  0.7642587E+00   0.8661693E+00 -0.1705101E+00 -0.4697628E+00
  0.1798604E+01 -0.3167491E+01 -0.2209582E+01   0.8661693E+00 -0.1705101E+00 -0.4697628E+00
  0.1814287E+01  0.1047482E+01 -0.3710577E+01   0.8661693E+00 -0.1705101E+00 -0.4697628E+00
  0.3633948E+01  0.2098063E+01 -0.7367368E+00   0.8661693E+00 -0.1705101E+00 -0.4697628E+00
 WIGNER-SEITZ-CONVCELL_END
 BRILLOUIN-ZONE-PRIMCELL
           6
 -0.1546664E+00 -0.5029264E-01 -0.5546346E-01  -0.8177549E+00 -0.4721309E+00 -0.3291950E+00
 -0.1545945E+00 -0.5033493E-01 -0.5558146E-01  -0.8177549E+00 -0.4721309E+00 -0.3291950E+00
 -0.1208886E+00 -0.1087153E+00 -0.5558146E-01  -0.8177549E+00 -0.4721309E+00 -0.3291950E+00
 -0.1208879E+00 -0.1087987E+00 -0.5546355E-01  -0.8177549E+00 -0.4721309E+00 -0.3291950E+00
 -0.1209598E+00 -0.1087564E+00 -0.5534555E-01  -0.8177549E+00 -0.4721309E+00 -0.3291950E+00
 -0.1546657E+00 -0.5037601E-01 -0.5534555E-01  -0.8177549E+00 -0.4721309E+00 -0.3291950E+00
           4
 -0.1749330E-01  0.2882046E-01  0.1684806E+00  -0.7069221E+00 -0.4081416E+00  0.5776518E+00
 -0.1546657E+00 -0.5037601E-01 -0.5534555E-01  -0.7069221E+00 -0.4081416E+00  0.5776518E+00
 -0.1209598E+00 -0.1087564E+00 -0.5534555E-01  -0.7069221E+00 -0.4081416E+00  0.5776518E+00
  0.1621262E-01 -0.2955992E-01  0.1684806E+00  -0.7069221E+00 -0.4081416E+00  0.5776518E+00
           6
  0.1680364E-01  0.1292882E+00  0.1119131E+00  -0.8175863E+00  0.4679861E+00  0.3354722E+00
 -0.1203688E+00  0.5009176E-01 -0.1119130E+00  -0.8175863E+00  0.4679861E+00  0.3354722E+00
 -0.1546664E+00 -0.5029264E-01 -0.5546346E-01  -0.8175863E+00  0.4679861E+00  0.3354722E+00
 -0.1546657E+00 -0.5037601E-01 -0.5534555E-01  -0.8175863E+00  0.4679861E+00  0.3354722E+00
 -0.1749330E-01  0.2882046E-01  0.1684806E+00  -0.8175863E+00  0.4679861E+00  0.3354722E+00
  0.1680430E-01  0.1292049E+00  0.1120311E+00  -0.8175863E+00  0.4679861E+00  0.3354722E+00
           6
  0.1202969E+00 -0.5004947E-01  0.1120310E+00  -0.3505020E-02 -0.9420438E+00  0.3354716E+00
  0.1621262E-01 -0.2955992E-01  0.1684806E+00  -0.3505020E-02 -0.9420438E+00  0.3354716E+00
 -0.1209598E+00 -0.1087564E+00 -0.5534555E-01  -0.3505020E-02 -0.9420438E+00  0.3354716E+00
 -0.1208879E+00 -0.1087987E+00 -0.5546355E-01  -0.3505020E-02 -0.9420438E+00  0.3354716E+00
 -0.1680364E-01 -0.1292882E+00 -0.1119131E+00  -0.3505020E-02 -0.9420438E+00  0.3354716E+00
  0.1203688E+00 -0.5009176E-01  0.1119130E+00  -0.3505020E-02 -0.9420438E+00  0.3354716E+00
           4
 -0.1203688E+00  0.5009176E-01 -0.1119130E+00  -0.8540251E+00 -0.7552789E-03 -0.5202313E+00
 -0.1202969E+00  0.5004947E-01 -0.1120310E+00  -0.8540251E+00 -0.7552789E-03 -0.5202313E+00
 -0.1545945E+00 -0.5033493E-01 -0.5558146E-01  -0.8540251E+00 -0.7552789E-03 -0.5202313E+00
 -0.1546664E+00 -0.5029264E-01 -0.5546346E-01  -0.8540251E+00 -0.7552789E-03 -0.5202313E+00
           6
 -0.1202969E+00  0.5004947E-01 -0.1120310E+00  -0.4997369E+00 -0.2885232E+00 -0.8167114E+00
 -0.1621262E-01  0.2955992E-01 -0.1684806E+00  -0.4997369E+00 -0.2885232E+00 -0.8167114E+00
  0.1749330E-01 -0.2882046E-01 -0.1684806E+00  -0.4997369E+00 -0.2885232E+00 -0.8167114E+00
 -0.1680430E-01 -0.1292049E+00 -0.1120311E+00  -0.4997369E+00 -0.2885232E+00 -0.8167114E+00
 -0.1208886E+00 -0.1087153E+00 -0.5558146E-01  -0.4997369E+00 -0.2885232E+00 -0.8167114E+00
 -0.1545945E+00 -0.5033493E-01 -0.5558146E-01  -0.4997369E+00 -0.2885232E+00 -0.8167114E+00
           4
 -0.1208879E+00 -0.1087987E+00 -0.5546355E-01  -0.4276665E+00 -0.7392296E+00 -0.5202317E+00
 -0.1208886E+00 -0.1087153E+00 -0.5558146E-01  -0.4276665E+00 -0.7392296E+00 -0.5202317E+00
 -0.1680430E-01 -0.1292049E+00 -0.1120311E+00  -0.4276665E+00 -0.7392296E+00 -0.5202317E+00
 -0.1680364E-01 -0.1292882E+00 -0.1119131E+00  -0.4276665E+00 -0.7392296E+00 -0.5202317E+00
           6
 -0.1749330E-01  0.2882046E-01  0.1684806E+00   0.4997369E+00  0.2885232E+00  0.8167114E+00
  0.1621262E-01 -0.2955992E-01  0.1684806E+00   0.4997369E+00  0.2885232E+00  0.8167114E+00
  0.1202969E+00 -0.5004947E-01  0.1120310E+00   0.4997369E+00  0.2885232E+00  0.8167114E+00
  0.1545945E+00  0.5033493E-01  0.5558146E-01   0.4997369E+00  0.2885232E+00  0.8167114E+00
  0.1208886E+00  0.1087153E+00  0.5558146E-01   0.4997369E+00  0.2885232E+00  0.8167114E+00
  0.1680430E-01  0.1292049E+00  0.1120311E+00   0.4997369E+00  0.2885232E+00  0.8167114E+00
           6
  0.1209598E+00  0.1087564E+00  0.5534555E-01   0.3505020E-02  0.9420438E+00 -0.3354716E+00
 -0.1621262E-01  0.2955992E-01 -0.1684806E+00   0.3505020E-02  0.9420438E+00 -0.3354716E+00
 -0.1202969E+00  0.5004947E-01 -0.1120310E+00   0.3505020E-02  0.9420438E+00 -0.3354716E+00
 -0.1203688E+00  0.5009176E-01 -0.1119130E+00   0.3505020E-02  0.9420438E+00 -0.3354716E+00
  0.1680364E-01  0.1292882E+00  0.1119131E+00   0.3505020E-02  0.9420438E+00 -0.3354716E+00
  0.1208879E+00  0.1087987E+00  0.5546355E-01   0.3505020E-02  0.9420438E+00 -0.3354716E+00
           4
  0.1208886E+00  0.1087153E+00  0.5558146E-01   0.4276665E+00  0.7392296E+00  0.5202317E+00
  0.1208879E+00  0.1087987E+00  0.5546355E-01   0.4276665E+00  0.7392296E+00  0.5202317E+00
  0.1680364E-01  0.1292882E+00  0.1119131E+00   0.4276665E+00  0.7392296E+00  0.5202317E+00
  0.1680430E-01  0.1292049E+00  0.1120311E+00   0.4276665E+00  0.7392296E+00  0.5202317E+00
           6
  0.1546664E+00  0.5029264E-01  0.5546346E-01   0.8175863E+00 -0.4679861E+00 -0.3354722E+00
  0.1203688E+00 -0.5009176E-01  0.1119130E+00   0.8175863E+00 -0.4679861E+00 -0.3354722E+00
 -0.1680364E-01 -0.1292882E+00 -0.1119131E+00   0.8175863E+00 -0.4679861E+00 -0.3354722E+00
 -0.1680430E-01 -0.1292049E+00 -0.1120311E+00   0.8175863E+00 -0.4679861E+00 -0.3354722E+00
  0.1749330E-01 -0.2882046E-01 -0.1684806E+00   0.8175863E+00 -0.4679861E+00 -0.3354722E+00
  0.1546657E+00  0.5037601E-01  0.5534555E-01   0.8175863E+00 -0.4679861E+00 -0.3354722E+00
           4
  0.1202969E+00 -0.5004947E-01  0.1120310E+00   0.8540251E+00  0.7552789E-03  0.5202313E+00
  0.1203688E+00 -0.5009176E-01  0.1119130E+00   0.8540251E+00  0.7552789E-03  0.5202313E+00
  0.1546664E+00  0.5029264E-01  0.5546346E-01   0.8540251E+00  0.7552789E-03  0.5202313E+00
  0.1545945E+00  0.5033493E-01  0.5558146E-01   0.8540251E+00  0.7552789E-03  0.5202313E+00
           4
  0.1546657E+00  0.5037601E-01  0.5534555E-01   0.7069221E+00  0.4081416E+00 -0.5776518E+00
  0.1749330E-01 -0.2882046E-01 -0.1684806E+00   0.7069221E+00  0.4081416E+00 -0.5776518E+00
 -0.1621262E-01  0.2955992E-01 -0.1684806E+00   0.7069221E+00  0.4081416E+00 -0.5776518E+00
  0.1209598E+00  0.1087564E+00  0.5534555E-01   0.7069221E+00  0.4081416E+00 -0.5776518E+00
           6
  0.1208886E+00  0.1087153E+00  0.5558146E-01   0.8177549E+00  0.4721309E+00  0.3291950E+00
  0.1545945E+00  0.5033493E-01  0.5558146E-01   0.8177549E+00  0.4721309E+00  0.3291950E+00
  0.1546664E+00  0.5029264E-01  0.5546346E-01   0.8177549E+00  0.4721309E+00  0.3291950E+00
  0.1546657E+00  0.5037601E-01  0.5534555E-01   0.8177549E+00  0.4721309E+00  0.3291950E+00
  0.1209598E+00  0.1087564E+00  0.5534555E-01   0.8177549E+00  0.4721309E+00  0.3291950E+00
  0.1208879E+00  0.1087987E+00  0.5546355E-01   0.8177549E+00  0.4721309E+00  0.3291950E+00
 BRILLOUIN-ZONE-PRIMCELL_END
 BRILLOUIN-ZONE-CONVCELL
           6
 -0.1546664E+00 -0.5029264E-01 -0.5546346E-01  -0.8177549E+00 -0.4721309E+00 -0.3291950E+00
 -0.1545945E+00 -0.5033493E-01 -0.5558146E-01  -0.8177549E+00 -0.4721309E+00 -0.3291950E+00
 -0.1208886E+00 -0.1087153E+00 -0.5558146E-01  -0.8177549E+00 -0.4721309E+00 -0.3291950E+00
 -0.1208879E+00 -0.1087987E+00 -0.5546355E-01  -0.8177549E+00 -0.4721309E+00 -0.3291950E+00
 -0.1209598E+00 -0.1087564E+00 -0.5534555E-01  -0.8177549E+00 -0.4721309E+00 -0.3291950E+00
 -0.1546657E+00 -0.5037601E-01 -0.5534555E-01  -0.8177549E+00 -0.4721309E+00 -0.3291950E+00
           4
 -0.1749330E-01  0.2882046E-01  0.1684806E+00  -0.7069221E+00 -0.4081416E+00  0.5776518E+00
 -0.1546657E+00 -0.5037601E-01 -0.5534555E-01  -0.7069221E+00 -0.4081416E+00  0.5776518E+00
 -0.1209598E+00 -0.1087564E+00 -0.5534555E-01  -0.7069221E+00 -0.4081416E+00  0.5776518E+00
  0.1621262E-01 -0.2955992E-01  0.1684806E+00  -0.7069221E+00 -0.4081416E+00  0.5776518E+00
           6
  0.1680364E-01  0.1292882E+00  0.1119131E+00  -0.8175863E+00  0.4679861E+00  0.3354722E+00
 -0.1203688E+00  0.5009176E-01 -0.1119130E+00  -0.8175863E+00  0.4679861E+00  0.3354722E+00
 -0.1546664E+00 -0.5029264E-01 -0.5546346E-01  -0.8175863E+00  0.4679861E+00  0.3354722E+00
 -0.1546657E+00 -0.5037601E-01 -0.5534555E-01  -0.8175863E+00  0.4679861E+00  0.3354722E+00
 -0.1749330E-01  0.2882046E-01  0.1684806E+00  -0.8175863E+00  0.4679861E+00  0.3354722E+00
  0.1680430E-01  0.1292049E+00  0.1120311E+00  -0.8175863E+00  0.4679861E+00  0.3354722E+00
           6
  0.1202969E+00 -0.5004947E-01  0.1120310E+00  -0.3505020E-02 -0.9420438E+00  0.3354716E+00
  0.1621262E-01 -0.2955992E-01  0.1684806E+00  -0.3505020E-02 -0.9420438E+00  0.3354716E+00
 -0.1209598E+00 -0.1087564E+00 -0.5534555E-01  -0.3505020E-02 -0.9420438E+00  0.3354716E+00
 -0.1208879E+00 -0.1087987E+00 -0.5546355E-01  -0.3505020E-02 -0.9420438E+00  0.3354716E+00
 -0.1680364E-01 -0.1292882E+00 -0.1119131E+00  -0.3505020E-02 -0.9420438E+00  0.3354716E+00
  0.1203688E+00 -0.5009176E-01  0.1119130E+00  -0.3505020E-02 -0.9420438E+00  0.3354716E+00
           4
 -0.1203688E+00  0.5009176E-01 -0.1119130E+00  -0.8540251E+00 -0.7552789E-03 -0.5202313E+00
 -0.1202969E+00  0.5004947E-01 -0.1120310E+00  -0.8540251E+00 -0.7552789E-03 -0.5202313E+00
 -0.1545945E+00 -0.5033493E-01 -0.5558146E-01  -0.8540251E+00 -0.7552789E-03 -0.5202313E+00
 -0.1546664E+00 -0.5029264E-01 -0.5546346E-01  -0.8540251E+00 -0.7552789E-03 -0.5202313E+00
           6
 -0.1202969E+00  0.5004947E-01 -0.1120310E+00  -0.4997369E+00 -0.2885232E+00 -0.8167114E+00
 -0.1621262E-01  0.2955992E-01 -0.1684806E+00  -0.4997369E+00 -0.2885232E+00 -0.8167114E+00
  0.1749330E-01 -0.2882046E-01 -0.1684806E+00  -0.4997369E+00 -0.2885232E+00 -0.8167114E+00
 -0.1680430E-01 -0.1292049E+00 -0.1120311E+00  -0.4997369E+00 -0.2885232E+00 -0.8167114E+00
 -0.1208886E+00 -0.1087153E+00 -0.5558146E-01  -0.4997369E+00 -0.2885232E+00 -0.8167114E+00
 -0.1545945E+00 -0.5033493E-01 -0.5558146E-01  -0.4997369E+00 -0.2885232E+00 -0.8167114E+00
           4
 -0.1208879E+00 -0.1087987E+00 -0.5546355E-01  -0.4276665E+00 -0.7392296E+00 -0.5202317E+00
 -0.1208886E+00 -0.1087153E+00 -0.5558146E-01  -0.4276665E+00 -0.7392296E+00 -0.5202317E+00
 -0.1680430E-01 -0.1292049E+00 -0.1120311E+00  -0.4276665E+00 -0.7392296E+00 -0.5202317E+00
 -0.1680364E-01 -0.1292882E+00 -0.1119131E+00  -0.4276665E+00 -0.7392296E+00 -0.5202317E+00
           6
 -0.1749330E-01  0.2882046E-01  0.1684806E+00   0.4997369E+00  0.2885232E+00  0.8167114E+00
  0.1621262E-01 -0.2955992E-01  0.1684806E+00   0.4997369E+00  0.2885232E+00  0.8167114E+00
  0.1202969E+00 -0.5004947E-01  0.1120310E+00   0.4997369E+00  0.2885232E+00  0.8167114E+00
  0.1545945E+00  0.5033493E-01  0.5558146E-01   0.4997369E+00  0.2885232E+00  0.8167114E+00
  0.1208886E+00  0.1087153E+00  0.5558146E-01   0.4997369E+00  0.2885232E+00  0.8167114E+00
  0.1680430E-01  0.1292049E+00  0.1120311E+00   0.4997369E+00  0.2885232E+00  0.8167114E+00
           6
  0.1209598E+00  0.1087564E+00  0.5534555E-01   0.3505020E-02  0.9420438E+00 -0.3354716E+00
 -0.1621262E-01  0.2955992E-01 -0.1684806E+00   0.3505020E-02  0.9420438E+00 -0.3354716E+00
 -0.1202969E+00  0.5004947E-01 -0.1120310E+00   0.3505020E-02  0.9420438E+00 -0.3354716E+00
 -0.1203688E+00  0.5009176E-01 -0.1119130E+00   0.3505020E-02  0.9420438E+00 -0.3354716E+00
  0.1680364E-01  0.1292882E+00  0.1119131E+00   0.3505020E-02  0.9420438E+00 -0.3354716E+00
  0.1208879E+00  0.1087987E+00  0.5546355E-01   0.3505020E-02  0.9420438E+00 -0.3354716E+00
           4
  0.1208886E+00  0.1087153E+00  0.5558146E-01   0.4276665E+00  0.7392296E+00  0.5202317E+00
  0.1208879E+00  0.1087987E+00  0.5546355E-01   0.4276665E+00  0.7392296E+00  0.5202317E+00
  0.1680364E-01  0.1292882E+00  0.1119131E+00   0.4276665E+00  0.7392296E+00  0.5202317E+00
  0.1680430E-01  0.1292049E+00  0.1120311E+00   0.4276665E+00  0.7392296E+00  0.5202317E+00
           6
  0.1546664E+00  0.5029264E-01  0.5546346E-01   0.8175863E+00 -0.4679861E+00 -0.3354722E+00
  0.1203688E+00 -0.5009176E-01  0.1119130E+00   0.8175863E+00 -0.4679861E+00 -0.3354722E+00
 -0.1680364E-01 -0.1292882E+00 -0.1119131E+00   0.8175863E+00 -0.4679861E+00 -0.3354722E+00
 -0.1680430E-01 -0.1292049E+00 -0.1120311E+00   0.8175863E+00 -0.4679861E+00 -0.3354722E+00
  0.1749330E-01 -0.2882046E-01 -0.1684806E+00   0.8175863E+00 -0.4679861E+00 -0.3354722E+00
  0.1546657E+00  0.5037601E-01  0.5534555E-01   0.8175863E+00 -0.4679861E+00 -0.3354722E+00
           4
  0.1202969E+00 -0.5004947E-01  0.1120310E+00   0.8540251E+00  0.7552789E-03  0.5202313E+00
  0.1203688E+00 -0.5009176E-01  0.1119130E+00   0.8540251E+00  0.7552789E-03  0.5202313E+00
  0.1546664E+00  0.5029264E-01  0.5546346E-01   0.8540251E+00  0.7552789E-03  0.5202313E+00
  0.1545945E+00  0.5033493E-01  0.5558146E-01   0.8540251E+00  0.7552789E-03  0.5202313E+00
           4
  0.1546657E+00  0.5037601E-01  0.5534555E-01   0.7069221E+00  0.4081416E+00 -0.5776518E+00
  0.1749330E-01 -0.2882046E-01 -0.1684806E+00   0.7069221E+00  0.4081416E+00 -0.5776518E+00
 -0.1621262E-01  0.2955992E-01 -0.1684806E+00   0.7069221E+00  0.4081416E+00 -0.5776518E+00
  0.1209598E+00  0.1087564E+00  0.5534555E-01   0.7069221E+00  0.4081416E+00 -0.5776518E+00
           6
  0.1208886E+00  0.1087153E+00  0.5558146E-01   0.8177549E+00  0.4721309E+00  0.3291950E+00
  0.1545945E+00  0.5033493E-01  0.5558146E-01   0.8177549E+00  0.4721309E+00  0.3291950E+00
  0.1546664E+00  0.5029264E-01  0.5546346E-01   0.8177549E+00  0.4721309E+00  0.3291950E+00
  0.1546657E+00  0.5037601E-01  0.5534555E-01   0.8177549E+00  0.4721309E+00  0.3291950E+00
  0.1209598E+00  0.1087564E+00  0.5534555E-01   0.8177549E+00  0.4721309E+00  0.3291950E+00
  0.1208879E+00  0.1087987E+00  0.5546355E-01   0.8177549E+00  0.4721309E+00  0.3291950E+00
 BRILLOUIN-ZONE-CONVCELL_END
 ATOMS
   25    5.4446296660    3.1434596890    2.2535831880    0.0001356500    0.0000777800   -0.0000612000
   25    7.2514220440    6.2895696940    2.2681123490    0.0001359000    0.0000786200   -0.0000616600
   25    9.0726389870    3.1351321400    2.2681114570    0.0001355900    0.0000781500   -0.0000612900
   25   10.8794316170    6.2812423630    2.2826403250    0.0001353500    0.0000786200   -0.0000613100
   16    7.2573329160    4.1900215960    3.0041702340   -0.0001354500   -0.0000782300    0.0000612400
   16    9.0641273200    7.3361338610    3.0186944600   -0.0001355400   -0.0000785200    0.0000614000
   16   10.8853403300    4.1816979080    3.0186948010   -0.0001357500   -0.0000780700    0.0000613700
   16   12.6921345300    7.3278101100    3.0332191110   -0.0001357400   -0.0000783500    0.0000614600
 FRAMES
1      0.0000000000    0.0000000000    0.0000000000      7.2560159810   -0.0166509960    0.0290531720
1      0.0000000000    0.0000000000    0.0000000000      3.6135870380    6.2922221920    0.0290531720
1      0.0000000000    0.0000000000    0.0000000000      1.8234640770    1.0527764640    2.9753718720