
     Program PWSCF v.7.3.1 starts on 20Jan2025 at 12:17:36 

     This program is part of the open-source Quantum ESPRESSO suite
     for quantum simulation of materials; please cite
         "P. Giannozzi et al., J. Phys.:Condens. Matter 21 395502 (2009);
         "P. Giannozzi et al., J. Phys.:Condens. Matter 29 465901 (2017);
         "P. Giannozzi et al., J. Chem. Phys. 152 154105 (2020);
          URL http://www.quantum-espresso.org", 
     in publications or presentations arising from this work. More details at
     http://www.quantum-espresso.org/quote

     Parallel version (MPI), running on     3 processors

     MPI processes distributed on     1 nodes
     3536 MiB available memory on the printing compute node when the environment starts

     Reading input from vc_relax.in

     Current dimensions of program PWSCF are:
     Max number of different atomic species (ntypx) = 10
     Max number of k-points (npk) =  40000
     Max angular momentum in pseudopotentials (lmaxx) =  4
     file Mn.pbe-spn-kjpaw_psl.0.3.1.UPF: wavefunction(s)  3P 3D renormalized
     file Mn.pbe-spn-kjpaw_psl.0.3.1.UPF: wavefunction(s)  3P 3D renormalized
     file Mn.pbe-spn-kjpaw_psl.0.3.1.UPF: wavefunction(s)  3P 3D renormalized
     file Mn.pbe-spn-kjpaw_psl.0.3.1.UPF: wavefunction(s)  3P 3D renormalized
     file S.pbe-n-kjpaw_psl.1.0.0.UPF: wavefunction(s)  3S 3P renormalized

     R & G space division:  proc/nbgrp/npool/nimage =       3
     Subspace diagonalization in iterative solution of the eigenvalue problem:
     a serial algorithm will be used


     Parallelization info
     --------------------
     sticks:   dense  smooth     PW     G-vecs:    dense   smooth      PW
     Min         747     600    185                11801     8454    1412
     Max         749     601    185                11802     8456    1413
     Sum        2245    1801    555                35405    25365    4237

     Using Slab Decomposition



     bravais-lattice index     =            0
     lattice parameter (alat)  =      14.7866  a.u.
     unit-cell volume          =    1143.0296 (a.u.)^3
     number of atoms/cell      =            8
     number of atomic types    =            5
     number of electrons       =        84.00
     number of Kohn-Sham states=           50
     kinetic-energy cutoff     =      30.0000  Ry
     charge density cutoff     =     150.0000  Ry
     scf convergence threshold =      1.0E-10
     mixing beta               =       0.7000
     number of iterations used =            8  plain     mixing
     energy convergence thresh.=      1.0E-05
     force convergence thresh. =      1.0E-04
     press convergence thresh. =      5.0E-01
     Exchange-correlation= SLA  PW   PBX  PBC
                           (   1   4   3   4   0   0   0)
     nstep                     =           50


     celldm(1)=  14.786571  celldm(2)=   0.000000  celldm(3)=   0.000000
     celldm(4)=   0.000000  celldm(5)=   0.000000  celldm(6)=   0.000000

     crystal axes: (cart. coord. in units of alat)
               a(1) = (   1.000000   0.000000   0.000000 )  
               a(2) = (   0.500000   0.866025   0.000000 )  
               a(3) = (   0.250000   0.144338   0.408248 )  

     reciprocal axes: (cart. coord. in units 2 pi/alat)
               b(1) = (  1.000000 -0.577350 -0.408248 )  
               b(2) = (  0.000000  1.154700 -0.408248 )  
               b(3) = (  0.000000  0.000000  2.449490 )  


     PseudoPot. # 1 for Mn read from file:
     ./../../../pseudos/Mn.pbe-spn-kjpaw_psl.0.3.1.UPF
     MD5 check sum: ba19e6d7ccbc12830efad05ba8577d9c
     Pseudo is Projector augmented-wave + core cor, Zval = 15.0
     Generated using &quot;atomic&quot; code by A. Dal Corso  v.6.2.2
     Shape of augmentation charge: PSQ
     Using radial grid of 1187 points,  6 beta functions with: 
                l(1) =   0
                l(2) =   0
                l(3) =   1
                l(4) =   1
                l(5) =   2
                l(6) =   2
     Q(r) pseudized with 0 coefficients 


     PseudoPot. # 2 for Mn read from file:
     ./../../../pseudos/Mn.pbe-spn-kjpaw_psl.0.3.1.UPF
     MD5 check sum: ba19e6d7ccbc12830efad05ba8577d9c
     Pseudo is Projector augmented-wave + core cor, Zval = 15.0
     Generated using &quot;atomic&quot; code by A. Dal Corso  v.6.2.2
     Shape of augmentation charge: PSQ
     Using radial grid of 1187 points,  6 beta functions with: 
                l(1) =   0
                l(2) =   0
                l(3) =   1
                l(4) =   1
                l(5) =   2
                l(6) =   2
     Q(r) pseudized with 0 coefficients 


     PseudoPot. # 3 for Mn read from file:
     ./../../../pseudos/Mn.pbe-spn-kjpaw_psl.0.3.1.UPF
     MD5 check sum: ba19e6d7ccbc12830efad05ba8577d9c
     Pseudo is Projector augmented-wave + core cor, Zval = 15.0
     Generated using &quot;atomic&quot; code by A. Dal Corso  v.6.2.2
     Shape of augmentation charge: PSQ
     Using radial grid of 1187 points,  6 beta functions with: 
                l(1) =   0
                l(2) =   0
                l(3) =   1
                l(4) =   1
                l(5) =   2
                l(6) =   2
     Q(r) pseudized with 0 coefficients 


     PseudoPot. # 4 for Mn read from file:
     ./../../../pseudos/Mn.pbe-spn-kjpaw_psl.0.3.1.UPF
     MD5 check sum: ba19e6d7ccbc12830efad05ba8577d9c
     Pseudo is Projector augmented-wave + core cor, Zval = 15.0
     Generated using &quot;atomic&quot; code by A. Dal Corso  v.6.2.2
     Shape of augmentation charge: PSQ
     Using radial grid of 1187 points,  6 beta functions with: 
                l(1) =   0
                l(2) =   0
                l(3) =   1
                l(4) =   1
                l(5) =   2
                l(6) =   2
     Q(r) pseudized with 0 coefficients 


     PseudoPot. # 5 for S  read from file:
     ./../../../pseudos/S.pbe-n-kjpaw_psl.1.0.0.UPF
     MD5 check sum: fb45dfebcf3e72a4e1bd4a866ec2e262
     Pseudo is Projector augmented-wave + core cor, Zval =  6.0
     Generated using &quot;atomic&quot; code by A. Dal Corso  v.6.3
     Shape of augmentation charge: PSQ
     Using radial grid of 1151 points,  6 beta functions with: 
                l(1) =   0
                l(2) =   0
                l(3) =   1
                l(4) =   1
                l(5) =   2
                l(6) =   2
     Q(r) pseudized with 0 coefficients 


     atomic species   valence    mass     pseudopotential
     Mn1              15.00    54.93800     Mn( 1.00)
     Mn2              15.00    54.93800     Mn( 1.00)
     Mn3              15.00    54.93800     Mn( 1.00)
     Mn4              15.00    54.93800     Mn( 1.00)
     S                 6.00    32.06500     S ( 1.00)

     Starting magnetic structure 
     atomic species   magnetization
     Mn1             0.200
     Mn2            -0.200
     Mn3            -0.200
     Mn4             0.200
     S               0.000

     No symmetry found


                                    s                        frac. trans.

      isym =  1     identity                                     

 cryst.   s( 1) = (     1          0          0      )
                  (     0          1          0      )
                  (     0          0          1      )

 cart.    s( 1) = (  1.0000000  0.0000000  0.0000000 )
                  (  0.0000000  1.0000000  0.0000000 )
                  (  0.0000000  0.0000000  1.0000000 )


   Cartesian axes

     site n.     atom                  positions (alat units)
         1        Mn1    tau(   1) = (   0.7500000   0.4330127   0.3061862  )
         2        Mn2    tau(   2) = (   0.9999999   0.8660254   0.3061862  )
         3        Mn3    tau(   3) = (   1.2500000   0.4330127   0.3061862  )
         4        Mn4    tau(   4) = (   1.4999999   0.8660254   0.3061862  )
         5        S      tau(   5) = (   0.0000000   0.0000000   0.0000000  )
         6        S      tau(   6) = (   0.2500000   0.4330127   0.0000000  )
         7        S      tau(   7) = (   0.5000000   0.0000000   0.0000000  )
         8        S      tau(   8) = (   0.7500000   0.4330127   0.0000000  )

   Crystallographic axes

     site n.     atom                  positions (cryst. coord.)
         1        Mn1    tau(   1) = (  0.3750000  0.3750000  0.7500000  )
         2        Mn2    tau(   2) = (  0.3750000  0.8750000  0.7500000  )
         3        Mn3    tau(   3) = (  0.8750000  0.3750000  0.7500000  )
         4        Mn4    tau(   4) = (  0.8750000  0.8750000  0.7500000  )
         5        S      tau(   5) = (  0.0000000  0.0000000  0.0000000  )
         6        S      tau(   6) = (  0.0000000  0.5000000  0.0000000  )
         7        S      tau(   7) = (  0.5000000  0.0000000  0.0000000  )
         8        S      tau(   8) = (  0.5000000  0.5000000  0.0000000  )

     number of k points=    23  Gaussian smearing, width (Ry)=  0.0100
                       cart. coord. in units 2pi/alat
        k(    1) = (   0.0000000   0.0000000   0.0000000), wk =   0.0222222
        k(    2) = (   0.0000000   0.0000000   0.4898979), wk =   0.0444444
        k(    3) = (   0.0000000   0.0000000   0.9797958), wk =   0.0444444
        k(    4) = (   0.0000000   0.3849002  -0.1360827), wk =   0.0444444
        k(    5) = (   0.0000000   0.3849002   0.3538152), wk =   0.0444444
        k(    6) = (   0.0000000   0.3849002   0.8437131), wk =   0.0444444
        k(    7) = (   0.0000000   0.3849002  -1.1158786), wk =   0.0444444
        k(    8) = (   0.0000000   0.3849002  -0.6259807), wk =   0.0444444
        k(    9) = (   0.3333333   0.1924501  -0.2721655), wk =   0.0444444
        k(   10) = (   0.3333333   0.1924501   0.2177324), wk =   0.0444444
        k(   11) = (   0.3333333   0.1924501   0.7076304), wk =   0.0444444
        k(   12) = (   0.3333333   0.1924501  -1.2519613), wk =   0.0444444
        k(   13) = (   0.3333333   0.1924501  -0.7620634), wk =   0.0444444
        k(   14) = (   0.3333333  -0.5773502   0.0000000), wk =   0.0444444
        k(   15) = (   0.3333333  -0.5773502   0.4898979), wk =   0.0444444
        k(   16) = (   0.3333333  -0.5773502   0.9797959), wk =   0.0444444
        k(   17) = (  -0.3333333   0.1924501   0.1360827), wk =   0.0444444
        k(   18) = (  -0.3333333   0.1924501  -0.3538152), wk =   0.0444444
        k(   19) = (  -0.3333333   0.1924501  -0.8437131), wk =   0.0444444
        k(   20) = (  -0.3333333   0.1924501   1.1158786), wk =   0.0444444
        k(   21) = (  -0.3333333   0.1924501   0.6259807), wk =   0.0444444
        k(   22) = (   0.3333333  -0.5773502  -0.4898979), wk =   0.0444444
        k(   23) = (   0.3333333  -0.5773502  -0.9797958), wk =   0.0444444

                       cryst. coord.
        k(    1) = (   0.0000000   0.0000000   0.0000000), wk =   0.0222222
        k(    2) = (   0.0000000   0.0000000   0.2000000), wk =   0.0444444
        k(    3) = (   0.0000000   0.0000000   0.4000000), wk =   0.0444444
        k(    4) = (   0.0000000   0.3333333   0.0000000), wk =   0.0444444
        k(    5) = (   0.0000000   0.3333333   0.2000000), wk =   0.0444444
        k(    6) = (   0.0000000   0.3333333   0.4000000), wk =   0.0444444
        k(    7) = (   0.0000000   0.3333333  -0.4000000), wk =   0.0444444
        k(    8) = (   0.0000000   0.3333333  -0.2000000), wk =   0.0444444
        k(    9) = (   0.3333333   0.3333333   0.0000000), wk =   0.0444444
        k(   10) = (   0.3333333   0.3333333   0.2000000), wk =   0.0444444
        k(   11) = (   0.3333333   0.3333333   0.4000000), wk =   0.0444444
        k(   12) = (   0.3333333   0.3333333  -0.4000000), wk =   0.0444444
        k(   13) = (   0.3333333   0.3333333  -0.2000000), wk =   0.0444444
        k(   14) = (   0.3333333  -0.3333333   0.0000000), wk =   0.0444444
        k(   15) = (   0.3333333  -0.3333333   0.2000000), wk =   0.0444444
        k(   16) = (   0.3333333  -0.3333333   0.4000000), wk =   0.0444444
        k(   17) = (  -0.3333333   0.0000000  -0.0000000), wk =   0.0444444
        k(   18) = (  -0.3333333   0.0000000  -0.2000000), wk =   0.0444444
        k(   19) = (  -0.3333333   0.0000000  -0.4000000), wk =   0.0444444
        k(   20) = (  -0.3333333   0.0000000   0.4000000), wk =   0.0444444
        k(   21) = (  -0.3333333   0.0000000   0.2000000), wk =   0.0444444
        k(   22) = (   0.3333333  -0.3333333  -0.2000000), wk =   0.0444444
        k(   23) = (   0.3333333  -0.3333333  -0.4000000), wk =   0.0444444

     Dense  grid:    35405 G-vectors     FFT dimensions: (  60,  60,  30)

     Smooth grid:    25365 G-vectors     FFT dimensions: (  54,  54,  25)

     Dynamical RAM for                 wfc:       0.81 MB

     Dynamical RAM for     wfc (w. buffer):      37.90 MB

     Dynamical RAM for           str. fact:       0.90 MB

     Dynamical RAM for           local pot:       0.00 MB

     Dynamical RAM for          nlocal pot:       2.32 MB

     Dynamical RAM for                qrad:       9.84 MB

     Dynamical RAM for          rho,v,vnew:       2.73 MB

     Dynamical RAM for               rhoin:       0.91 MB

     Dynamical RAM for            rho*nmix:       5.76 MB

     Dynamical RAM for           G-vectors:       0.74 MB

     Dynamical RAM for          h,s,v(r/c):       0.46 MB

     Dynamical RAM for          <psi|beta>:       0.11 MB

     Dynamical RAM for                 psi:       1.61 MB

     Dynamical RAM for                hpsi:       1.61 MB

     Dynamical RAM for                spsi:       1.61 MB

     Dynamical RAM for      wfcinit/wfcrot:       1.88 MB

     Dynamical RAM for           addusdens:      34.40 MB

     Dynamical RAM for          addusforce:      35.51 MB

     Dynamical RAM for         addusstress:      36.47 MB

     Estimated static dynamical RAM per process >      58.07 MB

     Estimated max dynamical RAM per process >     100.30 MB

     Estimated total dynamical RAM >     300.91 MB

     Check: negative core charge=   -0.000237
     Generating pointlists ...
     new r_m :   0.1263 (alat units)  1.8676 (a.u.) for type    1
     new r_m :   0.1263 (alat units)  1.8676 (a.u.) for type    2
     new r_m :   0.1263 (alat units)  1.8676 (a.u.) for type    3
     new r_m :   0.1263 (alat units)  1.8676 (a.u.) for type    4
     new r_m :   0.1263 (alat units)  1.8676 (a.u.) for type    5

     Initial potential from superposition of free atoms

     starting charge      83.9979, renormalised to      84.0000
     Starting wfcs are   56 randomized atomic wfcs
     Checking if some PAW data can be deallocated... 
       PAW data deallocated on    2 nodes for type:  1
       PAW data deallocated on    2 nodes for type:  2
       PAW data deallocated on    2 nodes for type:  3
       PAW data deallocated on    2 nodes for type:  4
       PAW data deallocated on    1 nodes for type:  5

     total cpu time spent up to now is        5.8 secs

     Self-consistent Calculation

     iteration #  1     ecut=    30.00 Ry     beta= 0.70
     Davidson diagonalization with overlap

---- Real-time Memory Report at c_bands before calling an iterative solver
            97 MiB given to the printing process from OS
             0 MiB allocation reported by mallinfo(arena+hblkhd)
          3321 MiB available memory on the node where the printing process lives
------------------
     ethr =  1.00E-02,  avg # of iterations =  2.0

     Threshold (ethr) on eigenvalues was too large:
     Diagonalizing with lowered threshold

     Davidson diagonalization with overlap

---- Real-time Memory Report at c_bands before calling an iterative solver
           131 MiB given to the printing process from OS
             0 MiB allocation reported by mallinfo(arena+hblkhd)
          3231 MiB available memory on the node where the printing process lives
------------------
     ethr =  3.63E-04,  avg # of iterations =  4.0

     total cpu time spent up to now is       28.9 secs

     total energy              =   -1411.05165791 Ry
     estimated scf accuracy    <       0.26529104 Ry

     total magnetization       =    -0.00 Bohr mag/cell
     absolute magnetization    =    16.09 Bohr mag/cell

     iteration #  2     ecut=    30.00 Ry     beta= 0.70
     Davidson diagonalization with overlap

---- Real-time Memory Report at c_bands before calling an iterative solver
           132 MiB given to the printing process from OS
             0 MiB allocation reported by mallinfo(arena+hblkhd)
          3213 MiB available memory on the node where the printing process lives
------------------
     ethr =  3.16E-04,  avg # of iterations =  2.2

     total cpu time spent up to now is       41.1 secs

     total energy              =   -1411.11671555 Ry
     estimated scf accuracy    <       0.02680206 Ry

     total magnetization       =     0.00 Bohr mag/cell
     absolute magnetization    =    16.83 Bohr mag/cell

     iteration #  3     ecut=    30.00 Ry     beta= 0.70
     Davidson diagonalization with overlap

---- Real-time Memory Report at c_bands before calling an iterative solver
           133 MiB given to the printing process from OS
             0 MiB allocation reported by mallinfo(arena+hblkhd)
          3199 MiB available memory on the node where the printing process lives
------------------
     ethr =  3.19E-05,  avg # of iterations =  6.3

     total cpu time spent up to now is       56.4 secs

     total energy              =   -1411.11898669 Ry
     estimated scf accuracy    <       0.03540744 Ry

     total magnetization       =    -0.00 Bohr mag/cell
     absolute magnetization    =    17.35 Bohr mag/cell

     iteration #  4     ecut=    30.00 Ry     beta= 0.70
     Davidson diagonalization with overlap

---- Real-time Memory Report at c_bands before calling an iterative solver
           134 MiB given to the printing process from OS
             0 MiB allocation reported by mallinfo(arena+hblkhd)
          3211 MiB available memory on the node where the printing process lives
------------------
     ethr =  3.19E-05,  avg # of iterations =  7.4

     total cpu time spent up to now is       73.0 secs

     total energy              =   -1411.12488309 Ry
     estimated scf accuracy    <       0.07938429 Ry

     total magnetization       =    -0.00 Bohr mag/cell
     absolute magnetization    =    17.42 Bohr mag/cell

     iteration #  5     ecut=    30.00 Ry     beta= 0.70
     Davidson diagonalization with overlap

---- Real-time Memory Report at c_bands before calling an iterative solver
           134 MiB given to the printing process from OS
             0 MiB allocation reported by mallinfo(arena+hblkhd)
          3146 MiB available memory on the node where the printing process lives
------------------
     ethr =  3.19E-05,  avg # of iterations =  4.0

     total cpu time spent up to now is       85.3 secs

     total energy              =   -1411.13360699 Ry
     estimated scf accuracy    <       0.00190839 Ry

     total magnetization       =     0.00 Bohr mag/cell
     absolute magnetization    =    17.63 Bohr mag/cell

     iteration #  6     ecut=    30.00 Ry     beta= 0.70
     Davidson diagonalization with overlap

---- Real-time Memory Report at c_bands before calling an iterative solver
           135 MiB given to the printing process from OS
             0 MiB allocation reported by mallinfo(arena+hblkhd)
          3194 MiB available memory on the node where the printing process lives
------------------
     c_bands:  1 eigenvalues not converged
     c_bands:  2 eigenvalues not converged
     c_bands:  1 eigenvalues not converged
     ethr =  2.27E-06,  avg # of iterations = 12.5

     total cpu time spent up to now is      105.3 secs

     total energy              =   -1411.13379225 Ry
     estimated scf accuracy    <       0.00626907 Ry

     total magnetization       =     0.00 Bohr mag/cell
     absolute magnetization    =    17.67 Bohr mag/cell

     iteration #  7     ecut=    30.00 Ry     beta= 0.70
     Davidson diagonalization with overlap

---- Real-time Memory Report at c_bands before calling an iterative solver
           135 MiB given to the printing process from OS
             0 MiB allocation reported by mallinfo(arena+hblkhd)
          3174 MiB available memory on the node where the printing process lives
------------------
     c_bands:  1 eigenvalues not converged
     c_bands:  1 eigenvalues not converged
     c_bands:  1 eigenvalues not converged
     c_bands:  1 eigenvalues not converged
     c_bands:  1 eigenvalues not converged
     c_bands:  1 eigenvalues not converged
     ethr =  2.27E-06,  avg # of iterations = 10.3

     total cpu time spent up to now is      120.8 secs

     total energy              =   -1411.13463733 Ry
     estimated scf accuracy    <       0.00060250 Ry

     total magnetization       =     0.00 Bohr mag/cell
     absolute magnetization    =    17.72 Bohr mag/cell

     iteration #  8     ecut=    30.00 Ry     beta= 0.70
     Davidson diagonalization with overlap

---- Real-time Memory Report at c_bands before calling an iterative solver
           136 MiB given to the printing process from OS
             0 MiB allocation reported by mallinfo(arena+hblkhd)
          3171 MiB available memory on the node where the printing process lives
------------------
     ethr =  7.17E-07,  avg # of iterations =  2.3

     total cpu time spent up to now is      132.1 secs

     total energy              =   -1411.13469545 Ry
     estimated scf accuracy    <       0.00013657 Ry

     total magnetization       =     0.00 Bohr mag/cell
     absolute magnetization    =    17.72 Bohr mag/cell

     iteration #  9     ecut=    30.00 Ry     beta= 0.70
     Davidson diagonalization with overlap

---- Real-time Memory Report at c_bands before calling an iterative solver
           137 MiB given to the printing process from OS
             0 MiB allocation reported by mallinfo(arena+hblkhd)
          3158 MiB available memory on the node where the printing process lives
------------------
     ethr =  1.63E-07,  avg # of iterations =  4.0

     total cpu time spent up to now is      143.5 secs

     total energy              =   -1411.13471143 Ry
     estimated scf accuracy    <       0.00000881 Ry

     total magnetization       =     0.00 Bohr mag/cell
     absolute magnetization    =    17.71 Bohr mag/cell

     iteration # 10     ecut=    30.00 Ry     beta= 0.70
     Davidson diagonalization with overlap

---- Real-time Memory Report at c_bands before calling an iterative solver
           137 MiB given to the printing process from OS
             0 MiB allocation reported by mallinfo(arena+hblkhd)
          3099 MiB available memory on the node where the printing process lives
------------------
     ethr =  1.05E-08,  avg # of iterations =  6.7

     total cpu time spent up to now is      157.7 secs

     total energy              =   -1411.13471464 Ry
     estimated scf accuracy    <       0.00000572 Ry

     total magnetization       =    -0.00 Bohr mag/cell
     absolute magnetization    =    17.72 Bohr mag/cell

     iteration # 11     ecut=    30.00 Ry     beta= 0.70
     Davidson diagonalization with overlap

---- Real-time Memory Report at c_bands before calling an iterative solver
           137 MiB given to the printing process from OS
             0 MiB allocation reported by mallinfo(arena+hblkhd)
          3098 MiB available memory on the node where the printing process lives
------------------
     ethr =  6.81E-09,  avg # of iterations =  2.0

     total cpu time spent up to now is      167.8 secs

     total energy              =   -1411.13471519 Ry
     estimated scf accuracy    <       0.00000072 Ry

     total magnetization       =    -0.00 Bohr mag/cell
     absolute magnetization    =    17.72 Bohr mag/cell

     iteration # 12     ecut=    30.00 Ry     beta= 0.70
     Davidson diagonalization with overlap

---- Real-time Memory Report at c_bands before calling an iterative solver
           137 MiB given to the printing process from OS
             0 MiB allocation reported by mallinfo(arena+hblkhd)
          3096 MiB available memory on the node where the printing process lives
------------------
     ethr =  8.62E-10,  avg # of iterations =  4.5

     total cpu time spent up to now is      179.8 secs

     total energy              =   -1411.13471533 Ry
     estimated scf accuracy    <       0.00000010 Ry

     total magnetization       =    -0.00 Bohr mag/cell
     absolute magnetization    =    17.72 Bohr mag/cell

     iteration # 13     ecut=    30.00 Ry     beta= 0.70
     Davidson diagonalization with overlap

---- Real-time Memory Report at c_bands before calling an iterative solver
           137 MiB given to the printing process from OS
             0 MiB allocation reported by mallinfo(arena+hblkhd)
          3084 MiB available memory on the node where the printing process lives
------------------
     ethr =  1.19E-10,  avg # of iterations =  4.6

     total cpu time spent up to now is      193.1 secs

     total energy              =   -1411.13471536 Ry
     estimated scf accuracy    <       0.00000001 Ry

     total magnetization       =     0.00 Bohr mag/cell
     absolute magnetization    =    17.72 Bohr mag/cell

     iteration # 14     ecut=    30.00 Ry     beta= 0.70
     Davidson diagonalization with overlap

---- Real-time Memory Report at c_bands before calling an iterative solver
           137 MiB given to the printing process from OS
             0 MiB allocation reported by mallinfo(arena+hblkhd)
          3191 MiB available memory on the node where the printing process lives
------------------
     ethr =  1.39E-11,  avg # of iterations =  4.3

     total cpu time spent up to now is      207.8 secs

     total energy              =   -1411.13471537 Ry
     estimated scf accuracy    <          5.5E-09 Ry

     total magnetization       =     0.00 Bohr mag/cell
     absolute magnetization    =    17.72 Bohr mag/cell

     iteration # 15     ecut=    30.00 Ry     beta= 0.70
     Davidson diagonalization with overlap

---- Real-time Memory Report at c_bands before calling an iterative solver
           137 MiB given to the printing process from OS
             0 MiB allocation reported by mallinfo(arena+hblkhd)
          2953 MiB available memory on the node where the printing process lives
------------------
     ethr =  6.55E-12,  avg # of iterations =  2.5

     total cpu time spent up to now is      227.6 secs

     total energy              =   -1411.13471537 Ry
     estimated scf accuracy    <          8.8E-10 Ry

     total magnetization       =     0.00 Bohr mag/cell
     absolute magnetization    =    17.72 Bohr mag/cell

     iteration # 16     ecut=    30.00 Ry     beta= 0.70
     Davidson diagonalization with overlap

---- Real-time Memory Report at c_bands before calling an iterative solver
           137 MiB given to the printing process from OS
             0 MiB allocation reported by mallinfo(arena+hblkhd)
          2798 MiB available memory on the node where the printing process lives
------------------
     ethr =  1.05E-12,  avg # of iterations =  4.0

     total cpu time spent up to now is      248.2 secs

     total energy              =   -1411.13471537 Ry
     estimated scf accuracy    <          4.3E-10 Ry

     total magnetization       =    -0.00 Bohr mag/cell
     absolute magnetization    =    17.72 Bohr mag/cell

     iteration # 17     ecut=    30.00 Ry     beta= 0.70
     Davidson diagonalization with overlap

---- Real-time Memory Report at c_bands before calling an iterative solver
           137 MiB given to the printing process from OS
             0 MiB allocation reported by mallinfo(arena+hblkhd)
          2801 MiB available memory on the node where the printing process lives
------------------
     ethr =  5.13E-13,  avg # of iterations =  2.0

     Magnetic moment per site  (integrated on atomic sphere of radius R)
     atom   1 (R=0.126)  charge= 12.9082  magn=  3.8823
     atom   2 (R=0.126)  charge= 12.9082  magn= -3.8823
     atom   3 (R=0.126)  charge= 12.9082  magn= -3.8823
     atom   4 (R=0.126)  charge= 12.9082  magn=  3.8823
     atom   5 (R=0.126)  charge=  4.1349  magn=  0.0001
     atom   6 (R=0.126)  charge=  4.1349  magn= -0.0001
     atom   7 (R=0.126)  charge=  4.1349  magn= -0.0001
     atom   8 (R=0.126)  charge=  4.1349  magn=  0.0001

     total cpu time spent up to now is      267.0 secs

     End of self-consistent calculation

 ------ SPIN UP ------------


          k = 0.0000 0.0000 0.0000 (  3203 PWs)   bands (ev):

   -74.3990 -74.3988 -70.0223 -70.0221 -43.1493 -43.1491 -43.1090 -43.1076
   -43.1074 -43.1074 -38.8143 -38.8119 -38.8117 -38.8116 -38.7989 -38.7986
    -6.1296  -5.4448  -5.4276  -5.2127   2.1251   2.1697   2.3372   3.2514
     3.2516   3.3328   3.3670   3.3761   3.8454   3.8704   4.2087   4.2087
     4.9302   4.9533   5.0891   5.5206   5.8410   6.0976   6.6304   6.8741
     6.9024   6.9025   8.5374   8.7232   8.8226   8.9015   9.1102   9.5232
     9.5938   9.6723

     occupation numbers 
     1.0000   1.0000   1.0000   1.0000   1.0000   1.0000   1.0000   1.0000
     1.0000   1.0000   1.0000   1.0000   1.0000   1.0000   1.0000   1.0000
     1.0000   1.0000   1.0000   1.0000   1.0000   1.0000   1.0000   1.0000
     1.0000   1.0000   1.0000   1.0000   1.0000   1.0000   1.0000   1.0000
     1.0000   1.0000   1.0000   1.0000   1.0000   1.0000   1.0000   1.0000
     1.0000   1.0000   0.0000   0.0000   0.0000   0.0000   0.0000   0.0000
     0.0000   0.0000

          k = 0.0000 0.0000 0.4899 (  3184 PWs)   bands (ev):

   -74.3988 -74.3988 -70.0221 -70.0221 -43.1491 -43.1491 -43.1089 -43.1081
   -43.1080 -43.1072 -38.8142 -38.8127 -38.8126 -38.8115 -38.7987 -38.7985
    -5.9083  -5.3709  -5.3586  -5.2951   2.3735   2.4347   2.5522   2.9273
     3.2266   3.2942   3.3706   3.4848   3.5648   3.7825   3.9338   4.0790
     4.9396   5.0328   5.1523   5.3470   5.7937   5.8276   6.1448   6.5018
     6.5684   6.8899   8.5957   8.6496   8.7051   8.9000   9.0135   9.2178
     9.3115   9.6570

     occupation numbers 
     1.0000   1.0000   1.0000   1.0000   1.0000   1.0000   1.0000   1.0000
     1.0000   1.0000   1.0000   1.0000   1.0000   1.0000   1.0000   1.0000
     1.0000   1.0000   1.0000   1.0000   1.0000   1.0000   1.0000   1.0000
     1.0000   1.0000   1.0000   1.0000   1.0000   1.0000   1.0000   1.0000
     1.0000   1.0000   1.0000   1.0000   1.0000   1.0000   1.0000   1.0000
     1.0000   1.0000   0.0000   0.0000   0.0000   0.0000   0.0000   0.0000
     0.0000   0.0000

          k = 0.0000 0.0000 0.9798 (  3151 PWs)   bands (ev):

   -74.3988 -74.3985 -70.0220 -70.0218 -43.1491 -43.1487 -43.1090 -43.1088
   -43.1087 -43.1071 -38.8141 -38.8140 -38.8139 -38.8114 -38.7986 -38.7982
    -5.5112  -5.4158  -5.2372  -5.2350   2.1898   2.2213   2.3205   2.4348
     3.3277   3.3541   3.5938   3.8071   3.8157   3.8198   3.8996   4.1646
     4.9347   4.9814   5.2720   5.4620   5.5029   5.5608   5.9173   5.9473
     6.5761   6.8674   8.3613   8.4397   8.6085   8.7415   8.9285   9.0520
     9.2359   9.2751

     occupation numbers 
     1.0000   1.0000   1.0000   1.0000   1.0000   1.0000   1.0000   1.0000
     1.0000   1.0000   1.0000   1.0000   1.0000   1.0000   1.0000   1.0000
     1.0000   1.0000   1.0000   1.0000   1.0000   1.0000   1.0000   1.0000
     1.0000   1.0000   1.0000   1.0000   1.0000   1.0000   1.0000   1.0000
     1.0000   1.0000   1.0000   1.0000   1.0000   1.0000   1.0000   1.0000
     1.0000   1.0000   0.0000   0.0000   0.0000   0.0000   0.0000   0.0000
     0.0000   0.0000

          k = 0.0000 0.3849-0.1361 (  3185 PWs)   bands (ev):

   -74.3989 -74.3988 -70.0221 -70.0221 -43.1492 -43.1491 -43.1086 -43.1076
   -43.1074 -43.1074 -38.8136 -38.8122 -38.8117 -38.8117 -38.7987 -38.7987
    -5.9709  -5.6270  -5.3843  -5.2731   2.3615   2.3771   2.5731   3.0205
     3.2864   3.3087   3.3174   3.3797   3.7431   3.8618   3.9433   4.1118
     4.9259   5.0537   5.1031   5.3658   6.0621   6.1097   6.4622   6.5808
     6.8549   6.8948   8.5794   8.7029   8.8838   8.9383   9.3117   9.3429
     9.6361   9.8488

     occupation numbers 
     1.0000   1.0000   1.0000   1.0000   1.0000   1.0000   1.0000   1.0000
     1.0000   1.0000   1.0000   1.0000   1.0000   1.0000   1.0000   1.0000
     1.0000   1.0000   1.0000   1.0000   1.0000   1.0000   1.0000   1.0000
     1.0000   1.0000   1.0000   1.0000   1.0000   1.0000   1.0000   1.0000
     1.0000   1.0000   1.0000   1.0000   1.0000   1.0000   1.0000   1.0000
     1.0000   1.0000   0.0000   0.0000   0.0000   0.0000   0.0000   0.0000
     0.0000   0.0000

          k = 0.0000 0.3849 0.3538 (  3165 PWs)   bands (ev):

   -74.3988 -74.3987 -70.0220 -70.0220 -43.1491 -43.1490 -43.1084 -43.1080
   -43.1080 -43.1076 -38.8134 -38.8126 -38.8125 -38.8122 -38.7986 -38.7985
    -5.8749  -5.4477  -5.4037  -5.2117   2.4717   2.6063   2.6710   2.8793
     3.1655   3.3294   3.3383   3.4069   3.5155   3.6663   3.8990   4.0995
     4.8765   4.9390   5.2323   5.4325   5.7715   5.9188   6.2228   6.3776
     6.5969   6.6604   8.5392   8.5474   8.7974   8.9645   9.0247   9.3081
     9.5661   9.7824

     occupation numbers 
     1.0000   1.0000   1.0000   1.0000   1.0000   1.0000   1.0000   1.0000
     1.0000   1.0000   1.0000   1.0000   1.0000   1.0000   1.0000   1.0000
     1.0000   1.0000   1.0000   1.0000   1.0000   1.0000   1.0000   1.0000
     1.0000   1.0000   1.0000   1.0000   1.0000   1.0000   1.0000   1.0000
     1.0000   1.0000   1.0000   1.0000   1.0000   1.0000   1.0000   1.0000
     1.0000   1.0000   0.0000   0.0000   0.0000   0.0000   0.0000   0.0000
     0.0000   0.0000

          k = 0.0000 0.3849 0.8437 (  3166 PWs)   bands (ev):

   -74.3988 -74.3986 -70.0220 -70.0219 -43.1490 -43.1489 -43.1090 -43.1089
   -43.1084 -43.1076 -38.8141 -38.8140 -38.8134 -38.8122 -38.7985 -38.7983
    -5.5112  -5.3475  -5.3139  -5.2417   2.4148   2.4396   2.6248   2.6436
     3.1897   3.2695   3.4179   3.4729   3.6199   3.7520   3.9543   3.9559
     4.8415   4.9319   5.2912   5.3876   5.5104   5.7705   5.8587   6.0762
     6.1162   6.5781   8.4391   8.4850   8.5821   8.7643   9.0286   9.0632
     9.2388   9.3378

     occupation numbers 
     1.0000   1.0000   1.0000   1.0000   1.0000   1.0000   1.0000   1.0000
     1.0000   1.0000   1.0000   1.0000   1.0000   1.0000   1.0000   1.0000
     1.0000   1.0000   1.0000   1.0000   1.0000   1.0000   1.0000   1.0000
     1.0000   1.0000   1.0000   1.0000   1.0000   1.0000   1.0000   1.0000
     1.0000   1.0000   1.0000   1.0000   1.0000   1.0000   1.0000   1.0000
     1.0000   1.0000   0.0000   0.0000   0.0000   0.0000   0.0000   0.0000
     0.0000   0.0000

          k = 0.0000 0.3849-1.1159 (  3158 PWs)   bands (ev):

   -74.3987 -74.3986 -70.0220 -70.0219 -43.1490 -43.1488 -43.1089 -43.1089
   -43.1084 -43.1076 -38.8140 -38.8140 -38.8134 -38.8122 -38.7985 -38.7983
    -5.4360  -5.3791  -5.3753  -5.2209   2.2865   2.3460   2.4713   2.5478
     3.2144   3.4011   3.5239   3.5918   3.6691   3.7595   3.9001   4.1430
     4.8304   4.9185   5.3698   5.4299   5.5019   5.8296   5.8386   6.0655
     6.1490   6.7341   8.3448   8.5490   8.5623   8.7855   8.8472   9.0845
     9.1892   9.4097

     occupation numbers 
     1.0000   1.0000   1.0000   1.0000   1.0000   1.0000   1.0000   1.0000
     1.0000   1.0000   1.0000   1.0000   1.0000   1.0000   1.0000   1.0000
     1.0000   1.0000   1.0000   1.0000   1.0000   1.0000   1.0000   1.0000
     1.0000   1.0000   1.0000   1.0000   1.0000   1.0000   1.0000   1.0000
     1.0000   1.0000   1.0000   1.0000   1.0000   1.0000   1.0000   1.0000
     1.0000   1.0000   0.0000   0.0000   0.0000   0.0000   0.0000   0.0000
     0.0000   0.0000

          k = 0.0000 0.3849-0.6260 (  3178 PWs)   bands (ev):

   -74.3988 -74.3987 -70.0221 -70.0220 -43.1491 -43.1490 -43.1085 -43.1080
   -43.1080 -43.1077 -38.8135 -38.8126 -38.8126 -38.8122 -38.7987 -38.7985
    -5.6856  -5.6118  -5.4134  -5.2479   2.5487   2.5935   2.7050   2.8323
     3.0798   3.1948   3.3447   3.4206   3.6119   3.7242   4.0230   4.0266
     4.8897   4.9109   5.2553   5.3305   5.7412   6.1504   6.1829   6.3285
     6.4147   6.8295   8.4977   8.6330   8.7793   8.7898   9.1130   9.1519
     9.4225   9.6650

     occupation numbers 
     1.0000   1.0000   1.0000   1.0000   1.0000   1.0000   1.0000   1.0000
     1.0000   1.0000   1.0000   1.0000   1.0000   1.0000   1.0000   1.0000
     1.0000   1.0000   1.0000   1.0000   1.0000   1.0000   1.0000   1.0000
     1.0000   1.0000   1.0000   1.0000   1.0000   1.0000   1.0000   1.0000
     1.0000   1.0000   1.0000   1.0000   1.0000   1.0000   1.0000   1.0000
     1.0000   1.0000   0.0000   0.0000   0.0000   0.0000   0.0000   0.0000
     0.0000   0.0000

          k = 0.3333 0.1925-0.2722 (  3186 PWs)   bands (ev):

   -74.3989 -74.3987 -70.0222 -70.0220 -43.1492 -43.1490 -43.1089 -43.1076
   -43.1074 -43.1073 -38.8142 -38.8118 -38.8117 -38.8116 -38.7988 -38.7985
    -5.9194  -5.4618  -5.4574  -5.4382   2.4024   2.4358   2.6084   3.0357
     3.2037   3.2345   3.2346   3.3742   3.6359   3.8988   4.2055   4.2055
     4.9301   4.9905   4.9939   5.4664   5.7923   6.2060   6.2461   6.6497
     7.0434   7.0435   8.7637   8.8054   8.8143   9.1080   9.1254   9.1736
     9.4056   9.7947

     occupation numbers 
     1.0000   1.0000   1.0000   1.0000   1.0000   1.0000   1.0000   1.0000
     1.0000   1.0000   1.0000   1.0000   1.0000   1.0000   1.0000   1.0000
     1.0000   1.0000   1.0000   1.0000   1.0000   1.0000   1.0000   1.0000
     1.0000   1.0000   1.0000   1.0000   1.0000   1.0000   1.0000   1.0000
     1.0000   1.0000   1.0000   1.0000   1.0000   1.0000   1.0000   1.0000
     1.0000   1.0000   0.0000   0.0000   0.0000   0.0000   0.0000   0.0000
     0.0000   0.0000

          k = 0.3333 0.1925 0.2177 (  3178 PWs)   bands (ev):

   -74.3988 -74.3987 -70.0221 -70.0220 -43.1491 -43.1490 -43.1089 -43.1081
   -43.1080 -43.1072 -38.8142 -38.8126 -38.8125 -38.8116 -38.7987 -38.7984
    -5.9457  -5.3682  -5.3563  -5.2534   2.3617   2.4280   2.5411   2.9785
     3.2120   3.2957   3.4017   3.4943   3.5602   3.7267   3.9211   4.0788
     4.9547   5.0600   5.1396   5.3489   5.8213   5.8593   6.0532   6.5046
     6.6194   6.8405   8.5713   8.6959   8.7066   8.8981   9.0687   9.2726
     9.2878   9.6674

     occupation numbers 
     1.0000   1.0000   1.0000   1.0000   1.0000   1.0000   1.0000   1.0000
     1.0000   1.0000   1.0000   1.0000   1.0000   1.0000   1.0000   1.0000
     1.0000   1.0000   1.0000   1.0000   1.0000   1.0000   1.0000   1.0000
     1.0000   1.0000   1.0000   1.0000   1.0000   1.0000   1.0000   1.0000
     1.0000   1.0000   1.0000   1.0000   1.0000   1.0000   1.0000   1.0000
     1.0000   1.0000   0.0000   0.0000   0.0000   0.0000   0.0000   0.0000
     0.0000   0.0000

          k = 0.3333 0.1925 0.7076 (  3164 PWs)   bands (ev):

   -74.3988 -74.3986 -70.0221 -70.0218 -43.1491 -43.1489 -43.1091 -43.1089
   -43.1087 -43.1072 -38.8142 -38.8140 -38.8139 -38.8115 -38.7986 -38.7983
    -5.6205  -5.3258  -5.2325  -5.2306   2.6107   2.6579   2.7561   2.8001
     3.0466   3.0488   3.3156   3.3624   3.5459   3.7974   3.9040   3.9284
     4.9378   4.9747   5.1444   5.3201   5.3989   5.6532   5.7877   5.8221
     6.1757   6.6194   8.5116   8.5385   8.7457   9.0089   9.0125   9.1150
     9.1479   9.2433

     occupation numbers 
     1.0000   1.0000   1.0000   1.0000   1.0000   1.0000   1.0000   1.0000
     1.0000   1.0000   1.0000   1.0000   1.0000   1.0000   1.0000   1.0000
     1.0000   1.0000   1.0000   1.0000   1.0000   1.0000   1.0000   1.0000
     1.0000   1.0000   1.0000   1.0000   1.0000   1.0000   1.0000   1.0000
     1.0000   1.0000   1.0000   1.0000   1.0000   1.0000   1.0000   1.0000
     1.0000   1.0000   0.0000   0.0000   0.0000   0.0000   0.0000   0.0000
     0.0000   0.0000

          k = 0.3333 0.1925-1.2520 (  3156 PWs)   bands (ev):

   -74.3988 -74.3986 -70.0220 -70.0218 -43.1491 -43.1488 -43.1090 -43.1089
   -43.1087 -43.1071 -38.8141 -38.8139 -38.8139 -38.8114 -38.7986 -38.7982
    -5.5685  -5.3662  -5.2353  -5.2332   2.3186   2.3506   2.4467   2.5508
     3.2831   3.3438   3.4360   3.7151   3.7245   3.8086   3.9136   3.9802
     4.9470   4.9551   5.2309   5.3947   5.4425   5.6610   5.8133   5.9076
     6.3932   6.7649   8.4301   8.4549   8.6577   9.0038   9.0255   9.0347
     9.1765   9.2240

     occupation numbers 
     1.0000   1.0000   1.0000   1.0000   1.0000   1.0000   1.0000   1.0000
     1.0000   1.0000   1.0000   1.0000   1.0000   1.0000   1.0000   1.0000
     1.0000   1.0000   1.0000   1.0000   1.0000   1.0000   1.0000   1.0000
     1.0000   1.0000   1.0000   1.0000   1.0000   1.0000   1.0000   1.0000
     1.0000   1.0000   1.0000   1.0000   1.0000   1.0000   1.0000   1.0000
     1.0000   1.0000   0.0000   0.0000   0.0000   0.0000   0.0000   0.0000
     0.0000   0.0000

          k = 0.3333 0.1925-0.7621 (  3171 PWs)   bands (ev):

   -74.3988 -74.3987 -70.0221 -70.0220 -43.1492 -43.1489 -43.1088 -43.1080
   -43.1080 -43.1072 -38.8141 -38.8126 -38.8125 -38.8115 -38.7988 -38.7984
    -5.6517  -5.5687  -5.3786  -5.3651   2.4250   2.5330   2.5997   2.6674
     3.2614   3.2938   3.3337   3.5079   3.5868   3.9221   4.0444   4.0617
     4.9346   4.9695   5.1850   5.3417   5.7106   5.8781   6.2916   6.3172
     6.6119   7.0242   8.5393   8.6516   8.8674   8.8690   8.9286   8.9970
     9.4487   9.6885

     occupation numbers 
     1.0000   1.0000   1.0000   1.0000   1.0000   1.0000   1.0000   1.0000
     1.0000   1.0000   1.0000   1.0000   1.0000   1.0000   1.0000   1.0000
     1.0000   1.0000   1.0000   1.0000   1.0000   1.0000   1.0000   1.0000
     1.0000   1.0000   1.0000   1.0000   1.0000   1.0000   1.0000   1.0000
     1.0000   1.0000   1.0000   1.0000   1.0000   1.0000   1.0000   1.0000
     1.0000   1.0000   0.0000   0.0000   0.0000   0.0000   0.0000   0.0000
     0.0000   0.0000

          k = 0.3333-0.5774 0.0000 (  3195 PWs)   bands (ev):

   -74.3989 -74.3988 -70.0222 -70.0221 -43.1493 -43.1491 -43.1085 -43.1077
   -43.1075 -43.1074 -38.8136 -38.8122 -38.8117 -38.8116 -38.7989 -38.7987
    -5.7493  -5.6485  -5.6211  -5.2678   2.5735   2.6899   2.6993   2.8432
     3.0777   3.2413   3.2707   3.3415   3.5142   3.9720   3.9864   4.0931
     4.9307   5.0058   5.1176   5.3315   5.8682   6.2574   6.3058   6.6620
     6.7012   7.0317   8.6969   8.7500   8.8489   9.0312   9.0634   9.4336
     9.4576   9.7797

     occupation numbers 
     1.0000   1.0000   1.0000   1.0000   1.0000   1.0000   1.0000   1.0000
     1.0000   1.0000   1.0000   1.0000   1.0000   1.0000   1.0000   1.0000
     1.0000   1.0000   1.0000   1.0000   1.0000   1.0000   1.0000   1.0000
     1.0000   1.0000   1.0000   1.0000   1.0000   1.0000   1.0000   1.0000
     1.0000   1.0000   1.0000   1.0000   1.0000   1.0000   1.0000   1.0000
     1.0000   1.0000   0.0000   0.0000   0.0000   0.0000   0.0000   0.0000
     0.0000   0.0000

          k = 0.3333-0.5774 0.4899 (  3179 PWs)   bands (ev):

   -74.3988 -74.3988 -70.0221 -70.0220 -43.1491 -43.1490 -43.1085 -43.1080
   -43.1080 -43.1077 -38.8135 -38.8126 -38.8126 -38.8122 -38.7987 -38.7985
    -5.7445  -5.5904  -5.3518  -5.2676   2.5334   2.5910   2.7456   2.7892
     3.0946   3.2075   3.3637   3.4038   3.6211   3.6816   3.9969   4.0477
     4.8879   4.9218   5.2426   5.3460   5.7452   6.1346   6.1712   6.3270
     6.4795   6.7808   8.5160   8.6223   8.7167   8.7959   9.1142   9.2144
     9.4682   9.6450

     occupation numbers 
     1.0000   1.0000   1.0000   1.0000   1.0000   1.0000   1.0000   1.0000
     1.0000   1.0000   1.0000   1.0000   1.0000   1.0000   1.0000   1.0000
     1.0000   1.0000   1.0000   1.0000   1.0000   1.0000   1.0000   1.0000
     1.0000   1.0000   1.0000   1.0000   1.0000   1.0000   1.0000   1.0000
     1.0000   1.0000   1.0000   1.0000   1.0000   1.0000   1.0000   1.0000
     1.0000   1.0000   0.0000   0.0000   0.0000   0.0000   0.0000   0.0000
     0.0000   0.0000

          k = 0.3333-0.5774 0.9798 (  3173 PWs)   bands (ev):

   -74.3988 -74.3987 -70.0220 -70.0219 -43.1490 -43.1489 -43.1090 -43.1089
   -43.1085 -43.1076 -38.8141 -38.8140 -38.8135 -38.8122 -38.7985 -38.7984
    -5.5419  -5.3167  -5.2899  -5.2678   2.5030   2.5611   2.7293   2.7880
     3.0515   3.1604   3.2911   3.4399   3.5867   3.7344   3.8849   3.9958
     4.8516   4.9389   5.2379   5.3578   5.5184   5.7414   5.8587   6.0389
     6.0862   6.4231   8.4937   8.5686   8.5772   8.8291   8.9973   9.0603
     9.2068   9.2570

     occupation numbers 
     1.0000   1.0000   1.0000   1.0000   1.0000   1.0000   1.0000   1.0000
     1.0000   1.0000   1.0000   1.0000   1.0000   1.0000   1.0000   1.0000
     1.0000   1.0000   1.0000   1.0000   1.0000   1.0000   1.0000   1.0000
     1.0000   1.0000   1.0000   1.0000   1.0000   1.0000   1.0000   1.0000
     1.0000   1.0000   1.0000   1.0000   1.0000   1.0000   1.0000   1.0000
     1.0000   1.0000   0.0000   0.0000   0.0000   0.0000   0.0000   0.0000
     0.0000   0.0000

          k =-0.3333 0.1925 0.1361 (  3185 PWs)   bands (ev):

   -74.3989 -74.3988 -70.0221 -70.0221 -43.1492 -43.1491 -43.1086 -43.1076
   -43.1074 -43.1074 -38.8136 -38.8122 -38.8117 -38.8117 -38.7987 -38.7987
    -5.9709  -5.6270  -5.3843  -5.2731   2.3615   2.3771   2.5731   3.0205
     3.2864   3.3087   3.3174   3.3797   3.7431   3.8618   3.9433   4.1118
     4.9259   5.0537   5.1031   5.3658   6.0621   6.1097   6.4622   6.5808
     6.8549   6.8948   8.5794   8.7029   8.8838   8.9383   9.3117   9.3429
     9.6361   9.8488

     occupation numbers 
     1.0000   1.0000   1.0000   1.0000   1.0000   1.0000   1.0000   1.0000
     1.0000   1.0000   1.0000   1.0000   1.0000   1.0000   1.0000   1.0000
     1.0000   1.0000   1.0000   1.0000   1.0000   1.0000   1.0000   1.0000
     1.0000   1.0000   1.0000   1.0000   1.0000   1.0000   1.0000   1.0000
     1.0000   1.0000   1.0000   1.0000   1.0000   1.0000   1.0000   1.0000
     1.0000   1.0000   0.0000   0.0000   0.0000   0.0000   0.0000   0.0000
     0.0000   0.0000

          k =-0.3333 0.1925-0.3538 (  3165 PWs)   bands (ev):

   -74.3988 -74.3987 -70.0220 -70.0220 -43.1491 -43.1490 -43.1084 -43.1080
   -43.1080 -43.1076 -38.8134 -38.8126 -38.8125 -38.8122 -38.7986 -38.7985
    -5.8749  -5.4477  -5.4037  -5.2117   2.4717   2.6063   2.6710   2.8793
     3.1655   3.3294   3.3383   3.4069   3.5155   3.6663   3.8990   4.0995
     4.8765   4.9390   5.2323   5.4325   5.7715   5.9188   6.2228   6.3776
     6.5969   6.6604   8.5392   8.5474   8.7974   8.9645   9.0247   9.3081
     9.5661   9.7825

     occupation numbers 
     1.0000   1.0000   1.0000   1.0000   1.0000   1.0000   1.0000   1.0000
     1.0000   1.0000   1.0000   1.0000   1.0000   1.0000   1.0000   1.0000
     1.0000   1.0000   1.0000   1.0000   1.0000   1.0000   1.0000   1.0000
     1.0000   1.0000   1.0000   1.0000   1.0000   1.0000   1.0000   1.0000
     1.0000   1.0000   1.0000   1.0000   1.0000   1.0000   1.0000   1.0000
     1.0000   1.0000   0.0000   0.0000   0.0000   0.0000   0.0000   0.0000
     0.0000   0.0000

          k =-0.3333 0.1925-0.8437 (  3166 PWs)   bands (ev):

   -74.3988 -74.3986 -70.0220 -70.0219 -43.1490 -43.1489 -43.1090 -43.1089
   -43.1084 -43.1076 -38.8141 -38.8140 -38.8134 -38.8122 -38.7985 -38.7983
    -5.5112  -5.3475  -5.3139  -5.2417   2.4148   2.4396   2.6248   2.6436
     3.1897   3.2695   3.4179   3.4729   3.6199   3.7520   3.9543   3.9559
     4.8415   4.9319   5.2912   5.3876   5.5104   5.7705   5.8587   6.0762
     6.1162   6.5781   8.4391   8.4850   8.5821   8.7643   9.0286   9.0632
     9.2388   9.3378

     occupation numbers 
     1.0000   1.0000   1.0000   1.0000   1.0000   1.0000   1.0000   1.0000
     1.0000   1.0000   1.0000   1.0000   1.0000   1.0000   1.0000   1.0000
     1.0000   1.0000   1.0000   1.0000   1.0000   1.0000   1.0000   1.0000
     1.0000   1.0000   1.0000   1.0000   1.0000   1.0000   1.0000   1.0000
     1.0000   1.0000   1.0000   1.0000   1.0000   1.0000   1.0000   1.0000
     1.0000   1.0000   0.0000   0.0000   0.0000   0.0000   0.0000   0.0000
     0.0000   0.0000

          k =-0.3333 0.1925 1.1159 (  3158 PWs)   bands (ev):

   -74.3987 -74.3986 -70.0220 -70.0219 -43.1490 -43.1488 -43.1089 -43.1089
   -43.1084 -43.1076 -38.8140 -38.8140 -38.8134 -38.8122 -38.7985 -38.7983
    -5.4360  -5.3791  -5.3753  -5.2209   2.2865   2.3460   2.4713   2.5478
     3.2144   3.4011   3.5239   3.5918   3.6691   3.7595   3.9001   4.1430
     4.8304   4.9185   5.3698   5.4299   5.5019   5.8296   5.8386   6.0655
     6.1490   6.7341   8.3448   8.5490   8.5623   8.7855   8.8472   9.0845
     9.1892   9.4097

     occupation numbers 
     1.0000   1.0000   1.0000   1.0000   1.0000   1.0000   1.0000   1.0000
     1.0000   1.0000   1.0000   1.0000   1.0000   1.0000   1.0000   1.0000
     1.0000   1.0000   1.0000   1.0000   1.0000   1.0000   1.0000   1.0000
     1.0000   1.0000   1.0000   1.0000   1.0000   1.0000   1.0000   1.0000
     1.0000   1.0000   1.0000   1.0000   1.0000   1.0000   1.0000   1.0000
     1.0000   1.0000   0.0000   0.0000   0.0000   0.0000   0.0000   0.0000
     0.0000   0.0000

          k =-0.3333 0.1925 0.6260 (  3178 PWs)   bands (ev):

   -74.3988 -74.3987 -70.0221 -70.0220 -43.1491 -43.1490 -43.1085 -43.1080
   -43.1080 -43.1077 -38.8135 -38.8126 -38.8126 -38.8122 -38.7987 -38.7985
    -5.6856  -5.6118  -5.4134  -5.2479   2.5487   2.5935   2.7050   2.8323
     3.0798   3.1948   3.3447   3.4206   3.6119   3.7242   4.0230   4.0266
     4.8897   4.9109   5.2553   5.3305   5.7412   6.1504   6.1829   6.3285
     6.4147   6.8295   8.4977   8.6330   8.7793   8.7898   9.1130   9.1519
     9.4225   9.6650

     occupation numbers 
     1.0000   1.0000   1.0000   1.0000   1.0000   1.0000   1.0000   1.0000
     1.0000   1.0000   1.0000   1.0000   1.0000   1.0000   1.0000   1.0000
     1.0000   1.0000   1.0000   1.0000   1.0000   1.0000   1.0000   1.0000
     1.0000   1.0000   1.0000   1.0000   1.0000   1.0000   1.0000   1.0000
     1.0000   1.0000   1.0000   1.0000   1.0000   1.0000   1.0000   1.0000
     1.0000   1.0000   0.0000   0.0000   0.0000   0.0000   0.0000   0.0000
     0.0000   0.0000

          k = 0.3333-0.5774-0.4899 (  3179 PWs)   bands (ev):

   -74.3988 -74.3988 -70.0221 -70.0220 -43.1491 -43.1490 -43.1085 -43.1080
   -43.1080 -43.1077 -38.8135 -38.8126 -38.8126 -38.8122 -38.7987 -38.7985
    -5.7445  -5.5904  -5.3518  -5.2676   2.5334   2.5910   2.7456   2.7892
     3.0946   3.2075   3.3637   3.4038   3.6211   3.6816   3.9969   4.0477
     4.8879   4.9218   5.2426   5.3460   5.7452   6.1346   6.1712   6.3270
     6.4795   6.7808   8.5160   8.6223   8.7167   8.7959   9.1142   9.2144
     9.4682   9.6450

     occupation numbers 
     1.0000   1.0000   1.0000   1.0000   1.0000   1.0000   1.0000   1.0000
     1.0000   1.0000   1.0000   1.0000   1.0000   1.0000   1.0000   1.0000
     1.0000   1.0000   1.0000   1.0000   1.0000   1.0000   1.0000   1.0000
     1.0000   1.0000   1.0000   1.0000   1.0000   1.0000   1.0000   1.0000
     1.0000   1.0000   1.0000   1.0000   1.0000   1.0000   1.0000   1.0000
     1.0000   1.0000   0.0000   0.0000   0.0000   0.0000   0.0000   0.0000
     0.0000   0.0000

          k = 0.3333-0.5774-0.9798 (  3173 PWs)   bands (ev):

   -74.3988 -74.3987 -70.0220 -70.0219 -43.1490 -43.1489 -43.1090 -43.1089
   -43.1085 -43.1076 -38.8141 -38.8140 -38.8135 -38.8122 -38.7985 -38.7984
    -5.5419  -5.3167  -5.2899  -5.2678   2.5030   2.5611   2.7293   2.7880
     3.0515   3.1604   3.2911   3.4399   3.5867   3.7344   3.8849   3.9958
     4.8516   4.9389   5.2379   5.3578   5.5184   5.7414   5.8587   6.0389
     6.0862   6.4231   8.4937   8.5686   8.5772   8.8291   8.9973   9.0603
     9.2068   9.2570

     occupation numbers 
     1.0000   1.0000   1.0000   1.0000   1.0000   1.0000   1.0000   1.0000
     1.0000   1.0000   1.0000   1.0000   1.0000   1.0000   1.0000   1.0000
     1.0000   1.0000   1.0000   1.0000   1.0000   1.0000   1.0000   1.0000
     1.0000   1.0000   1.0000   1.0000   1.0000   1.0000   1.0000   1.0000
     1.0000   1.0000   1.0000   1.0000   1.0000   1.0000   1.0000   1.0000
     1.0000   1.0000   0.0000   0.0000   0.0000   0.0000   0.0000   0.0000
     0.0000   0.0000

 ------ SPIN DOWN ----------


          k = 0.0000 0.0000 0.0000 (  3203 PWs)   bands (ev):

   -74.3990 -74.3988 -70.0222 -70.0220 -43.1493 -43.1491 -43.1090 -43.1077
   -43.1074 -43.1074 -38.8143 -38.8119 -38.8117 -38.8116 -38.7989 -38.7986
    -6.1296  -5.4448  -5.4276  -5.2127   2.1251   2.1697   2.3372   3.2514
     3.2516   3.3328   3.3670   3.3761   3.8454   3.8704   4.2087   4.2087
     4.9302   4.9533   5.0891   5.5206   5.8410   6.0976   6.6304   6.8741
     6.9024   6.9025   8.5374   8.7232   8.8226   8.9015   9.1102   9.5938
     9.6722   9.8076

     occupation numbers 
     1.0000   1.0000   1.0000   1.0000   1.0000   1.0000   1.0000   1.0000
     1.0000   1.0000   1.0000   1.0000   1.0000   1.0000   1.0000   1.0000
     1.0000   1.0000   1.0000   1.0000   1.0000   1.0000   1.0000   1.0000
     1.0000   1.0000   1.0000   1.0000   1.0000   1.0000   1.0000   1.0000
     1.0000   1.0000   1.0000   1.0000   1.0000   1.0000   1.0000   1.0000
     1.0000   1.0000   0.0000   0.0000   0.0000   0.0000   0.0000   0.0000
     0.0000   0.0000

          k = 0.0000 0.0000 0.4899 (  3184 PWs)   bands (ev):

   -74.3988 -74.3988 -70.0221 -70.0221 -43.1491 -43.1491 -43.1090 -43.1082
   -43.1080 -43.1072 -38.8142 -38.8126 -38.8126 -38.8115 -38.7987 -38.7985
    -5.9083  -5.3709  -5.3586  -5.2951   2.3735   2.4347   2.5522   2.9273
     3.2266   3.2942   3.3706   3.4848   3.5648   3.7825   3.9338   4.0790
     4.9396   5.0328   5.1523   5.3469   5.7937   5.8275   6.1448   6.5018
     6.5684   6.8899   8.5957   8.6497   8.7051   8.9000   9.0135   9.2178
     9.3115   9.6570

     occupation numbers 
     1.0000   1.0000   1.0000   1.0000   1.0000   1.0000   1.0000   1.0000
     1.0000   1.0000   1.0000   1.0000   1.0000   1.0000   1.0000   1.0000
     1.0000   1.0000   1.0000   1.0000   1.0000   1.0000   1.0000   1.0000
     1.0000   1.0000   1.0000   1.0000   1.0000   1.0000   1.0000   1.0000
     1.0000   1.0000   1.0000   1.0000   1.0000   1.0000   1.0000   1.0000
     1.0000   1.0000   0.0000   0.0000   0.0000   0.0000   0.0000   0.0000
     0.0000   0.0000

          k = 0.0000 0.0000 0.9798 (  3151 PWs)   bands (ev):

   -74.3988 -74.3985 -70.0220 -70.0218 -43.1491 -43.1488 -43.1090 -43.1088
   -43.1088 -43.1071 -38.8141 -38.8140 -38.8139 -38.8114 -38.7986 -38.7981
    -5.5112  -5.4158  -5.2372  -5.2350   2.1898   2.2213   2.3205   2.4348
     3.3277   3.3541   3.5938   3.8071   3.8157   3.8198   3.8996   4.1646
     4.9347   4.9814   5.2720   5.4620   5.5029   5.5608   5.9173   5.9473
     6.5761   6.8674   8.3613   8.4397   8.6085   8.7416   8.9285   9.0520
     9.2359   9.2751

     occupation numbers 
     1.0000   1.0000   1.0000   1.0000   1.0000   1.0000   1.0000   1.0000
     1.0000   1.0000   1.0000   1.0000   1.0000   1.0000   1.0000   1.0000
     1.0000   1.0000   1.0000   1.0000   1.0000   1.0000   1.0000   1.0000
     1.0000   1.0000   1.0000   1.0000   1.0000   1.0000   1.0000   1.0000
     1.0000   1.0000   1.0000   1.0000   1.0000   1.0000   1.0000   1.0000
     1.0000   1.0000   0.0000   0.0000   0.0000   0.0000   0.0000   0.0000
     0.0000   0.0000

          k = 0.0000 0.3849-0.1361 (  3185 PWs)   bands (ev):

   -74.3989 -74.3988 -70.0221 -70.0221 -43.1492 -43.1491 -43.1086 -43.1077
   -43.1075 -43.1074 -38.8136 -38.8122 -38.8117 -38.8116 -38.7987 -38.7987
    -5.9709  -5.6270  -5.3843  -5.2731   2.3615   2.3771   2.5731   3.0205
     3.2864   3.3087   3.3174   3.3797   3.7431   3.8618   3.9433   4.1118
     4.9259   5.0537   5.1031   5.3658   6.0621   6.1097   6.4622   6.5808
     6.8549   6.8948   8.5794   8.7029   8.8838   8.9383   9.3117   9.3429
     9.6362   9.8488

     occupation numbers 
     1.0000   1.0000   1.0000   1.0000   1.0000   1.0000   1.0000   1.0000
     1.0000   1.0000   1.0000   1.0000   1.0000   1.0000   1.0000   1.0000
     1.0000   1.0000   1.0000   1.0000   1.0000   1.0000   1.0000   1.0000
     1.0000   1.0000   1.0000   1.0000   1.0000   1.0000   1.0000   1.0000
     1.0000   1.0000   1.0000   1.0000   1.0000   1.0000   1.0000   1.0000
     1.0000   1.0000   0.0000   0.0000   0.0000   0.0000   0.0000   0.0000
     0.0000   0.0000

          k = 0.0000 0.3849 0.3538 (  3165 PWs)   bands (ev):

   -74.3988 -74.3987 -70.0220 -70.0220 -43.1491 -43.1490 -43.1084 -43.1080
   -43.1080 -43.1076 -38.8134 -38.8126 -38.8125 -38.8121 -38.7986 -38.7985
    -5.8749  -5.4477  -5.4037  -5.2117   2.4717   2.6063   2.6710   2.8793
     3.1655   3.3294   3.3383   3.4069   3.5155   3.6663   3.8990   4.0995
     4.8764   4.9390   5.2323   5.4325   5.7715   5.9188   6.2228   6.3776
     6.5969   6.6604   8.5392   8.5474   8.7974   8.9645   9.0247   9.3081
     9.5661   9.7824

     occupation numbers 
     1.0000   1.0000   1.0000   1.0000   1.0000   1.0000   1.0000   1.0000
     1.0000   1.0000   1.0000   1.0000   1.0000   1.0000   1.0000   1.0000
     1.0000   1.0000   1.0000   1.0000   1.0000   1.0000   1.0000   1.0000
     1.0000   1.0000   1.0000   1.0000   1.0000   1.0000   1.0000   1.0000
     1.0000   1.0000   1.0000   1.0000   1.0000   1.0000   1.0000   1.0000
     1.0000   1.0000   0.0000   0.0000   0.0000   0.0000   0.0000   0.0000
     0.0000   0.0000

          k = 0.0000 0.3849 0.8437 (  3166 PWs)   bands (ev):

   -74.3988 -74.3986 -70.0220 -70.0219 -43.1490 -43.1489 -43.1090 -43.1089
   -43.1084 -43.1077 -38.8141 -38.8140 -38.8134 -38.8122 -38.7985 -38.7983
    -5.5112  -5.3475  -5.3139  -5.2417   2.4148   2.4396   2.6248   2.6436
     3.1897   3.2695   3.4179   3.4729   3.6199   3.7520   3.9543   3.9559
     4.8415   4.9319   5.2912   5.3876   5.5104   5.7705   5.8587   6.0762
     6.1162   6.5781   8.4391   8.4850   8.5821   8.7643   9.0286   9.0632
     9.2388   9.3379

     occupation numbers 
     1.0000   1.0000   1.0000   1.0000   1.0000   1.0000   1.0000   1.0000
     1.0000   1.0000   1.0000   1.0000   1.0000   1.0000   1.0000   1.0000
     1.0000   1.0000   1.0000   1.0000   1.0000   1.0000   1.0000   1.0000
     1.0000   1.0000   1.0000   1.0000   1.0000   1.0000   1.0000   1.0000
     1.0000   1.0000   1.0000   1.0000   1.0000   1.0000   1.0000   1.0000
     1.0000   1.0000   0.0000   0.0000   0.0000   0.0000   0.0000   0.0000
     0.0000   0.0000

          k = 0.0000 0.3849-1.1159 (  3158 PWs)   bands (ev):

   -74.3987 -74.3986 -70.0220 -70.0219 -43.1490 -43.1488 -43.1090 -43.1089
   -43.1084 -43.1076 -38.8140 -38.8139 -38.8134 -38.8121 -38.7985 -38.7983
    -5.4360  -5.3791  -5.3753  -5.2209   2.2865   2.3460   2.4713   2.5478
     3.2144   3.4011   3.5239   3.5918   3.6691   3.7595   3.9001   4.1430
     4.8304   4.9185   5.3698   5.4299   5.5019   5.8296   5.8386   6.0655
     6.1490   6.7341   8.3448   8.5490   8.5623   8.7855   8.8472   9.0845
     9.1893   9.4096

     occupation numbers 
     1.0000   1.0000   1.0000   1.0000   1.0000   1.0000   1.0000   1.0000
     1.0000   1.0000   1.0000   1.0000   1.0000   1.0000   1.0000   1.0000
     1.0000   1.0000   1.0000   1.0000   1.0000   1.0000   1.0000   1.0000
     1.0000   1.0000   1.0000   1.0000   1.0000   1.0000   1.0000   1.0000
     1.0000   1.0000   1.0000   1.0000   1.0000   1.0000   1.0000   1.0000
     1.0000   1.0000   0.0000   0.0000   0.0000   0.0000   0.0000   0.0000
     0.0000   0.0000

          k = 0.0000 0.3849-0.6260 (  3178 PWs)   bands (ev):

   -74.3988 -74.3988 -70.0221 -70.0220 -43.1491 -43.1490 -43.1085 -43.1080
   -43.1080 -43.1077 -38.8135 -38.8126 -38.8125 -38.8122 -38.7987 -38.7985
    -5.6856  -5.6118  -5.4134  -5.2479   2.5487   2.5935   2.7050   2.8323
     3.0798   3.1948   3.3447   3.4206   3.6119   3.7242   4.0230   4.0266
     4.8897   4.9109   5.2553   5.3305   5.7412   6.1504   6.1829   6.3285
     6.4146   6.8295   8.4977   8.6330   8.7793   8.7898   9.1130   9.1520
     9.4225   9.6649

     occupation numbers 
     1.0000   1.0000   1.0000   1.0000   1.0000   1.0000   1.0000   1.0000
     1.0000   1.0000   1.0000   1.0000   1.0000   1.0000   1.0000   1.0000
     1.0000   1.0000   1.0000   1.0000   1.0000   1.0000   1.0000   1.0000
     1.0000   1.0000   1.0000   1.0000   1.0000   1.0000   1.0000   1.0000
     1.0000   1.0000   1.0000   1.0000   1.0000   1.0000   1.0000   1.0000
     1.0000   1.0000   0.0000   0.0000   0.0000   0.0000   0.0000   0.0000
     0.0000   0.0000

          k = 0.3333 0.1925-0.2722 (  3186 PWs)   bands (ev):

   -74.3990 -74.3987 -70.0222 -70.0220 -43.1492 -43.1490 -43.1089 -43.1076
   -43.1074 -43.1074 -38.8142 -38.8118 -38.8117 -38.8116 -38.7988 -38.7985
    -5.9194  -5.4618  -5.4574  -5.4382   2.4024   2.4358   2.6084   3.0357
     3.2037   3.2344   3.2346   3.3742   3.6359   3.8988   4.2055   4.2055
     4.9300   4.9905   4.9939   5.4664   5.7923   6.2060   6.2461   6.6497
     7.0434   7.0435   8.7637   8.8054   8.8143   9.1080   9.1254   9.1736
     9.4057   9.7947

     occupation numbers 
     1.0000   1.0000   1.0000   1.0000   1.0000   1.0000   1.0000   1.0000
     1.0000   1.0000   1.0000   1.0000   1.0000   1.0000   1.0000   1.0000
     1.0000   1.0000   1.0000   1.0000   1.0000   1.0000   1.0000   1.0000
     1.0000   1.0000   1.0000   1.0000   1.0000   1.0000   1.0000   1.0000
     1.0000   1.0000   1.0000   1.0000   1.0000   1.0000   1.0000   1.0000
     1.0000   1.0000   0.0000   0.0000   0.0000   0.0000   0.0000   0.0000
     0.0000   0.0000

          k = 0.3333 0.1925 0.2177 (  3178 PWs)   bands (ev):

   -74.3988 -74.3987 -70.0221 -70.0220 -43.1491 -43.1490 -43.1089 -43.1081
   -43.1080 -43.1072 -38.8142 -38.8126 -38.8125 -38.8116 -38.7987 -38.7984
    -5.9457  -5.3682  -5.3563  -5.2534   2.3617   2.4280   2.5411   2.9785
     3.2120   3.2957   3.4017   3.4943   3.5602   3.7267   3.9211   4.0788
     4.9547   5.0600   5.1396   5.3489   5.8213   5.8592   6.0532   6.5046
     6.6194   6.8405   8.5713   8.6959   8.7066   8.8981   9.0687   9.2727
     9.2878   9.6674

     occupation numbers 
     1.0000   1.0000   1.0000   1.0000   1.0000   1.0000   1.0000   1.0000
     1.0000   1.0000   1.0000   1.0000   1.0000   1.0000   1.0000   1.0000
     1.0000   1.0000   1.0000   1.0000   1.0000   1.0000   1.0000   1.0000
     1.0000   1.0000   1.0000   1.0000   1.0000   1.0000   1.0000   1.0000
     1.0000   1.0000   1.0000   1.0000   1.0000   1.0000   1.0000   1.0000
     1.0000   1.0000   0.0000   0.0000   0.0000   0.0000   0.0000   0.0000
     0.0000   0.0000

          k = 0.3333 0.1925 0.7076 (  3164 PWs)   bands (ev):

   -74.3988 -74.3986 -70.0221 -70.0218 -43.1491 -43.1489 -43.1091 -43.1089
   -43.1087 -43.1072 -38.8142 -38.8139 -38.8139 -38.8115 -38.7986 -38.7983
    -5.6205  -5.3258  -5.2325  -5.2306   2.6107   2.6579   2.7561   2.8001
     3.0466   3.0488   3.3156   3.3624   3.5459   3.7974   3.9040   3.9283
     4.9378   4.9747   5.1444   5.3201   5.3989   5.6532   5.7876   5.8221
     6.1757   6.6194   8.5116   8.5385   8.7457   9.0089   9.0125   9.1150
     9.1479   9.2433

     occupation numbers 
     1.0000   1.0000   1.0000   1.0000   1.0000   1.0000   1.0000   1.0000
     1.0000   1.0000   1.0000   1.0000   1.0000   1.0000   1.0000   1.0000
     1.0000   1.0000   1.0000   1.0000   1.0000   1.0000   1.0000   1.0000
     1.0000   1.0000   1.0000   1.0000   1.0000   1.0000   1.0000   1.0000
     1.0000   1.0000   1.0000   1.0000   1.0000   1.0000   1.0000   1.0000
     1.0000   1.0000   0.0000   0.0000   0.0000   0.0000   0.0000   0.0000
     0.0000   0.0000

          k = 0.3333 0.1925-1.2520 (  3156 PWs)   bands (ev):

   -74.3988 -74.3986 -70.0220 -70.0218 -43.1491 -43.1489 -43.1090 -43.1089
   -43.1087 -43.1071 -38.8141 -38.8139 -38.8139 -38.8114 -38.7986 -38.7982
    -5.5685  -5.3662  -5.2353  -5.2332   2.3186   2.3506   2.4467   2.5508
     3.2831   3.3438   3.4360   3.7151   3.7245   3.8086   3.9136   3.9802
     4.9470   4.9551   5.2309   5.3947   5.4425   5.6610   5.8133   5.9076
     6.3932   6.7649   8.4302   8.4549   8.6577   9.0038   9.0256   9.0347
     9.1768   9.2240

     occupation numbers 
     1.0000   1.0000   1.0000   1.0000   1.0000   1.0000   1.0000   1.0000
     1.0000   1.0000   1.0000   1.0000   1.0000   1.0000   1.0000   1.0000
     1.0000   1.0000   1.0000   1.0000   1.0000   1.0000   1.0000   1.0000
     1.0000   1.0000   1.0000   1.0000   1.0000   1.0000   1.0000   1.0000
     1.0000   1.0000   1.0000   1.0000   1.0000   1.0000   1.0000   1.0000
     1.0000   1.0000   0.0000   0.0000   0.0000   0.0000   0.0000   0.0000
     0.0000   0.0000

          k = 0.3333 0.1925-0.7621 (  3171 PWs)   bands (ev):

   -74.3988 -74.3987 -70.0221 -70.0219 -43.1492 -43.1489 -43.1089 -43.1080
   -43.1080 -43.1072 -38.8141 -38.8126 -38.8125 -38.8115 -38.7988 -38.7984
    -5.6517  -5.5687  -5.3786  -5.3651   2.4250   2.5330   2.5997   2.6674
     3.2614   3.2938   3.3337   3.5079   3.5868   3.9221   4.0444   4.0617
     4.9346   4.9695   5.1850   5.3417   5.7106   5.8781   6.2916   6.3172
     6.6119   7.0242   8.5393   8.6516   8.8674   8.8690   8.9286   8.9970
     9.4487   9.6884

     occupation numbers 
     1.0000   1.0000   1.0000   1.0000   1.0000   1.0000   1.0000   1.0000
     1.0000   1.0000   1.0000   1.0000   1.0000   1.0000   1.0000   1.0000
     1.0000   1.0000   1.0000   1.0000   1.0000   1.0000   1.0000   1.0000
     1.0000   1.0000   1.0000   1.0000   1.0000   1.0000   1.0000   1.0000
     1.0000   1.0000   1.0000   1.0000   1.0000   1.0000   1.0000   1.0000
     1.0000   1.0000   0.0000   0.0000   0.0000   0.0000   0.0000   0.0000
     0.0000   0.0000

          k = 0.3333-0.5774 0.0000 (  3195 PWs)   bands (ev):

   -74.3989 -74.3988 -70.0222 -70.0221 -43.1493 -43.1491 -43.1086 -43.1077
   -43.1075 -43.1074 -38.8136 -38.8122 -38.8117 -38.8116 -38.7989 -38.7986
    -5.7493  -5.6485  -5.6211  -5.2678   2.5735   2.6899   2.6993   2.8432
     3.0777   3.2413   3.2707   3.3415   3.5141   3.9720   3.9864   4.0931
     4.9307   5.0058   5.1176   5.3315   5.8681   6.2574   6.3058   6.6620
     6.7012   7.0317   8.6970   8.7500   8.8489   9.0312   9.0634   9.4336
     9.4576   9.7797

     occupation numbers 
     1.0000   1.0000   1.0000   1.0000   1.0000   1.0000   1.0000   1.0000
     1.0000   1.0000   1.0000   1.0000   1.0000   1.0000   1.0000   1.0000
     1.0000   1.0000   1.0000   1.0000   1.0000   1.0000   1.0000   1.0000
     1.0000   1.0000   1.0000   1.0000   1.0000   1.0000   1.0000   1.0000
     1.0000   1.0000   1.0000   1.0000   1.0000   1.0000   1.0000   1.0000
     1.0000   1.0000   0.0000   0.0000   0.0000   0.0000   0.0000   0.0000
     0.0000   0.0000

          k = 0.3333-0.5774 0.4899 (  3179 PWs)   bands (ev):

   -74.3988 -74.3988 -70.0221 -70.0220 -43.1491 -43.1490 -43.1085 -43.1081
   -43.1080 -43.1077 -38.8135 -38.8126 -38.8126 -38.8122 -38.7987 -38.7985
    -5.7445  -5.5904  -5.3518  -5.2676   2.5334   2.5910   2.7456   2.7892
     3.0946   3.2075   3.3637   3.4038   3.6211   3.6816   3.9969   4.0477
     4.8879   4.9218   5.2426   5.3460   5.7452   6.1346   6.1712   6.3270
     6.4795   6.7808   8.5160   8.6223   8.7167   8.7959   9.1142   9.2144
     9.4682   9.6449

     occupation numbers 
     1.0000   1.0000   1.0000   1.0000   1.0000   1.0000   1.0000   1.0000
     1.0000   1.0000   1.0000   1.0000   1.0000   1.0000   1.0000   1.0000
     1.0000   1.0000   1.0000   1.0000   1.0000   1.0000   1.0000   1.0000
     1.0000   1.0000   1.0000   1.0000   1.0000   1.0000   1.0000   1.0000
     1.0000   1.0000   1.0000   1.0000   1.0000   1.0000   1.0000   1.0000
     1.0000   1.0000   0.0000   0.0000   0.0000   0.0000   0.0000   0.0000
     0.0000   0.0000

          k = 0.3333-0.5774 0.9798 (  3173 PWs)   bands (ev):

   -74.3988 -74.3987 -70.0220 -70.0219 -43.1490 -43.1489 -43.1090 -43.1090
   -43.1085 -43.1077 -38.8141 -38.8140 -38.8134 -38.8122 -38.7985 -38.7983
    -5.5419  -5.3167  -5.2899  -5.2678   2.5030   2.5611   2.7293   2.7880
     3.0515   3.1604   3.2911   3.4399   3.5867   3.7344   3.8849   3.9958
     4.8516   4.9389   5.2379   5.3578   5.5184   5.7414   5.8587   6.0389
     6.0862   6.4231   8.4937   8.5686   8.5772   8.8291   8.9973   9.0603
     9.2068   9.2570

     occupation numbers 
     1.0000   1.0000   1.0000   1.0000   1.0000   1.0000   1.0000   1.0000
     1.0000   1.0000   1.0000   1.0000   1.0000   1.0000   1.0000   1.0000
     1.0000   1.0000   1.0000   1.0000   1.0000   1.0000   1.0000   1.0000
     1.0000   1.0000   1.0000   1.0000   1.0000   1.0000   1.0000   1.0000
     1.0000   1.0000   1.0000   1.0000   1.0000   1.0000   1.0000   1.0000
     1.0000   1.0000   0.0000   0.0000   0.0000   0.0000   0.0000   0.0000
     0.0000   0.0000

          k =-0.3333 0.1925 0.1361 (  3185 PWs)   bands (ev):

   -74.3989 -74.3988 -70.0221 -70.0221 -43.1492 -43.1491 -43.1086 -43.1077
   -43.1075 -43.1074 -38.8136 -38.8122 -38.8117 -38.8116 -38.7987 -38.7987
    -5.9709  -5.6270  -5.3843  -5.2731   2.3615   2.3771   2.5731   3.0205
     3.2864   3.3087   3.3174   3.3797   3.7431   3.8618   3.9433   4.1118
     4.9259   5.0537   5.1031   5.3658   6.0621   6.1097   6.4622   6.5808
     6.8549   6.8948   8.5794   8.7029   8.8838   8.9383   9.3117   9.3429
     9.6361   9.8488

     occupation numbers 
     1.0000   1.0000   1.0000   1.0000   1.0000   1.0000   1.0000   1.0000
     1.0000   1.0000   1.0000   1.0000   1.0000   1.0000   1.0000   1.0000
     1.0000   1.0000   1.0000   1.0000   1.0000   1.0000   1.0000   1.0000
     1.0000   1.0000   1.0000   1.0000   1.0000   1.0000   1.0000   1.0000
     1.0000   1.0000   1.0000   1.0000   1.0000   1.0000   1.0000   1.0000
     1.0000   1.0000   0.0000   0.0000   0.0000   0.0000   0.0000   0.0000
     0.0000   0.0000

          k =-0.3333 0.1925-0.3538 (  3165 PWs)   bands (ev):

   -74.3988 -74.3987 -70.0220 -70.0220 -43.1491 -43.1490 -43.1084 -43.1080
   -43.1080 -43.1076 -38.8134 -38.8126 -38.8125 -38.8121 -38.7986 -38.7985
    -5.8749  -5.4477  -5.4037  -5.2117   2.4717   2.6063   2.6710   2.8793
     3.1655   3.3294   3.3383   3.4069   3.5155   3.6663   3.8990   4.0995
     4.8764   4.9390   5.2323   5.4325   5.7715   5.9188   6.2228   6.3776
     6.5969   6.6604   8.5392   8.5474   8.7974   8.9645   9.0247   9.3081
     9.5661   9.7825

     occupation numbers 
     1.0000   1.0000   1.0000   1.0000   1.0000   1.0000   1.0000   1.0000
     1.0000   1.0000   1.0000   1.0000   1.0000   1.0000   1.0000   1.0000
     1.0000   1.0000   1.0000   1.0000   1.0000   1.0000   1.0000   1.0000
     1.0000   1.0000   1.0000   1.0000   1.0000   1.0000   1.0000   1.0000
     1.0000   1.0000   1.0000   1.0000   1.0000   1.0000   1.0000   1.0000
     1.0000   1.0000   0.0000   0.0000   0.0000   0.0000   0.0000   0.0000
     0.0000   0.0000

          k =-0.3333 0.1925-0.8437 (  3166 PWs)   bands (ev):

   -74.3988 -74.3986 -70.0220 -70.0219 -43.1490 -43.1489 -43.1090 -43.1089
   -43.1084 -43.1077 -38.8141 -38.8140 -38.8134 -38.8122 -38.7985 -38.7983
    -5.5112  -5.3475  -5.3139  -5.2417   2.4148   2.4396   2.6248   2.6436
     3.1897   3.2695   3.4179   3.4729   3.6199   3.7520   3.9543   3.9559
     4.8415   4.9319   5.2912   5.3876   5.5104   5.7705   5.8587   6.0762
     6.1162   6.5781   8.4391   8.4850   8.5821   8.7643   9.0286   9.0632
     9.2389   9.3378

     occupation numbers 
     1.0000   1.0000   1.0000   1.0000   1.0000   1.0000   1.0000   1.0000
     1.0000   1.0000   1.0000   1.0000   1.0000   1.0000   1.0000   1.0000
     1.0000   1.0000   1.0000   1.0000   1.0000   1.0000   1.0000   1.0000
     1.0000   1.0000   1.0000   1.0000   1.0000   1.0000   1.0000   1.0000
     1.0000   1.0000   1.0000   1.0000   1.0000   1.0000   1.0000   1.0000
     1.0000   1.0000   0.0000   0.0000   0.0000   0.0000   0.0000   0.0000
     0.0000   0.0000

          k =-0.3333 0.1925 1.1159 (  3158 PWs)   bands (ev):

   -74.3987 -74.3986 -70.0220 -70.0219 -43.1490 -43.1488 -43.1090 -43.1089
   -43.1084 -43.1076 -38.8140 -38.8139 -38.8134 -38.8121 -38.7985 -38.7983
    -5.4360  -5.3791  -5.3753  -5.2209   2.2865   2.3460   2.4713   2.5478
     3.2144   3.4011   3.5239   3.5918   3.6691   3.7595   3.9001   4.1430
     4.8304   4.9185   5.3698   5.4299   5.5019   5.8296   5.8386   6.0655
     6.1490   6.7341   8.3448   8.5490   8.5623   8.7855   8.8472   9.0845
     9.1893   9.4096

     occupation numbers 
     1.0000   1.0000   1.0000   1.0000   1.0000   1.0000   1.0000   1.0000
     1.0000   1.0000   1.0000   1.0000   1.0000   1.0000   1.0000   1.0000
     1.0000   1.0000   1.0000   1.0000   1.0000   1.0000   1.0000   1.0000
     1.0000   1.0000   1.0000   1.0000   1.0000   1.0000   1.0000   1.0000
     1.0000   1.0000   1.0000   1.0000   1.0000   1.0000   1.0000   1.0000
     1.0000   1.0000   0.0000   0.0000   0.0000   0.0000   0.0000   0.0000
     0.0000   0.0000

          k =-0.3333 0.1925 0.6260 (  3178 PWs)   bands (ev):

   -74.3988 -74.3988 -70.0221 -70.0220 -43.1491 -43.1490 -43.1085 -43.1080
   -43.1080 -43.1077 -38.8135 -38.8126 -38.8125 -38.8122 -38.7987 -38.7985
    -5.6856  -5.6118  -5.4134  -5.2479   2.5487   2.5935   2.7050   2.8323
     3.0798   3.1948   3.3447   3.4206   3.6119   3.7242   4.0230   4.0266
     4.8897   4.9109   5.2553   5.3305   5.7412   6.1504   6.1829   6.3285
     6.4146   6.8295   8.4977   8.6330   8.7793   8.7898   9.1130   9.1520
     9.4225   9.6650

     occupation numbers 
     1.0000   1.0000   1.0000   1.0000   1.0000   1.0000   1.0000   1.0000
     1.0000   1.0000   1.0000   1.0000   1.0000   1.0000   1.0000   1.0000
     1.0000   1.0000   1.0000   1.0000   1.0000   1.0000   1.0000   1.0000
     1.0000   1.0000   1.0000   1.0000   1.0000   1.0000   1.0000   1.0000
     1.0000   1.0000   1.0000   1.0000   1.0000   1.0000   1.0000   1.0000
     1.0000   1.0000   0.0000   0.0000   0.0000   0.0000   0.0000   0.0000
     0.0000   0.0000

          k = 0.3333-0.5774-0.4899 (  3179 PWs)   bands (ev):

   -74.3988 -74.3988 -70.0221 -70.0220 -43.1491 -43.1490 -43.1085 -43.1081
   -43.1080 -43.1077 -38.8135 -38.8126 -38.8126 -38.8122 -38.7987 -38.7985
    -5.7445  -5.5904  -5.3518  -5.2676   2.5334   2.5910   2.7456   2.7892
     3.0946   3.2075   3.3637   3.4038   3.6211   3.6816   3.9969   4.0477
     4.8879   4.9218   5.2426   5.3460   5.7452   6.1346   6.1712   6.3270
     6.4795   6.7808   8.5160   8.6223   8.7167   8.7959   9.1142   9.2144
     9.4682   9.6450

     occupation numbers 
     1.0000   1.0000   1.0000   1.0000   1.0000   1.0000   1.0000   1.0000
     1.0000   1.0000   1.0000   1.0000   1.0000   1.0000   1.0000   1.0000
     1.0000   1.0000   1.0000   1.0000   1.0000   1.0000   1.0000   1.0000
     1.0000   1.0000   1.0000   1.0000   1.0000   1.0000   1.0000   1.0000
     1.0000   1.0000   1.0000   1.0000   1.0000   1.0000   1.0000   1.0000
     1.0000   1.0000   0.0000   0.0000   0.0000   0.0000   0.0000   0.0000
     0.0000   0.0000

          k = 0.3333-0.5774-0.9798 (  3173 PWs)   bands (ev):

   -74.3988 -74.3987 -70.0220 -70.0219 -43.1490 -43.1489 -43.1090 -43.1090
   -43.1085 -43.1077 -38.8141 -38.8140 -38.8134 -38.8122 -38.7985 -38.7983
    -5.5419  -5.3167  -5.2899  -5.2678   2.5030   2.5611   2.7293   2.7880
     3.0515   3.1604   3.2911   3.4399   3.5867   3.7344   3.8849   3.9958
     4.8516   4.9389   5.2379   5.3578   5.5184   5.7414   5.8587   6.0389
     6.0862   6.4231   8.4937   8.5686   8.5772   8.8291   8.9973   9.0603
     9.2068   9.2570

     occupation numbers 
     1.0000   1.0000   1.0000   1.0000   1.0000   1.0000   1.0000   1.0000
     1.0000   1.0000   1.0000   1.0000   1.0000   1.0000   1.0000   1.0000
     1.0000   1.0000   1.0000   1.0000   1.0000   1.0000   1.0000   1.0000
     1.0000   1.0000   1.0000   1.0000   1.0000   1.0000   1.0000   1.0000
     1.0000   1.0000   1.0000   1.0000   1.0000   1.0000   1.0000   1.0000
     1.0000   1.0000   0.0000   0.0000   0.0000   0.0000   0.0000   0.0000
     0.0000   0.0000

     the Fermi energy is     7.6423 ev

!    total energy              =   -1411.13471537 Ry
     total all-electron energy =    -12462.568330 Ry
     estimated scf accuracy    <          4.3E-11 Ry
     smearing contrib. (-TS)   =      -0.00000000 Ry
     internal energy E=F+TS    =   -1411.13471537 Ry

     The total energy is F=E-TS. E is the sum of the following terms:
     one-electron contribution =    -609.16970682 Ry
     hartree contribution      =     338.39850942 Ry
     xc contribution           =    -132.32302576 Ry
     ewald contribution        =    -513.02136846 Ry
     one-center paw contrib.   =    -495.01912374 Ry
      -> PAW hartree energy AE =     525.70911502 Ry
      -> PAW hartree energy PS =    -528.59156960 Ry
      -> PAW xc energy AE      =    -313.51157129 Ry
      -> PAW xc energy PS      =      83.53369810 Ry
      -> total E_H with PAW    =     335.51605484 Ry
      -> total E_XC with PAW   =    -362.30089896 Ry

     total magnetization       =    -0.00 Bohr mag/cell
     absolute magnetization    =    17.72 Bohr mag/cell

     convergence has been achieved in  17 iterations

     Forces acting on atoms (cartesian axes, Ry/au):

     atom    1 type  1   force =    -0.00000745   -0.00000498    0.00004764
     atom    2 type  2   force =    -0.00000785   -0.00000627    0.00004837
     atom    3 type  3   force =    -0.00000946   -0.00000351    0.00004835
     atom    4 type  4   force =    -0.00000923   -0.00000495    0.00004871
     atom    5 type  5   force =     0.00000854    0.00000591   -0.00004864
     atom    6 type  5   force =     0.00000771    0.00000441   -0.00004760
     atom    7 type  5   force =     0.00000845    0.00000494   -0.00004823
     atom    8 type  5   force =     0.00000929    0.00000445   -0.00004859
     The non-local contrib.  to forces
     atom    1 type  1   force =     0.00019766    0.00011485    0.00005248
     atom    2 type  2   force =     0.00019745    0.00011328    0.00005313
     atom    3 type  3   force =     0.00019765    0.00011501    0.00005241
     atom    4 type  4   force =     0.00019777    0.00011348    0.00005280
     atom    5 type  5   force =    -0.00012223   -0.00007055    0.00007107
     atom    6 type  5   force =    -0.00012268   -0.00007092    0.00007147
     atom    7 type  5   force =    -0.00012282   -0.00007080    0.00007149
     atom    8 type  5   force =    -0.00012223   -0.00007060    0.00007111
     The ionic contribution  to forces
     atom    1 type  1   force =    -0.00000135   -0.00000078   -0.00000055
     atom    2 type  2   force =    -0.00000135   -0.00000078   -0.00000055
     atom    3 type  3   force =    -0.00000135   -0.00000078   -0.00000055
     atom    4 type  4   force =    -0.00000135   -0.00000078   -0.00000055
     atom    5 type  5   force =     0.00000135    0.00000078    0.00000055
     atom    6 type  5   force =     0.00000135    0.00000078    0.00000055
     atom    7 type  5   force =     0.00000135    0.00000078    0.00000055
     atom    8 type  5   force =     0.00000135    0.00000078    0.00000055
     The local contribution  to forces
     atom    1 type  1   force =    -0.00020822   -0.00012124   -0.00000420
     atom    2 type  2   force =    -0.00020764   -0.00011755   -0.00000597
     atom    3 type  3   force =    -0.00020718   -0.00012218   -0.00000467
     atom    4 type  4   force =    -0.00020776   -0.00011821   -0.00000562
     atom    5 type  5   force =     0.00012852    0.00007759   -0.00011940
     atom    6 type  5   force =     0.00012371    0.00006970   -0.00011365
     atom    7 type  5   force =     0.00012506    0.00007389   -0.00011588
     atom    8 type  5   force =     0.00012964    0.00007170   -0.00011807
     The core correction contribution to forces
     atom    1 type  1   force =     0.00000325    0.00000187    0.00000101
     atom    2 type  2   force =     0.00000325    0.00000188    0.00000102
[...]
     1.0000   1.0000   1.0000   1.0000   1.0000   1.0000   1.0000   1.0000
     1.0000   1.0000   1.0000   1.0000   1.0000   1.0000   1.0000   1.0000
     1.0000   1.0000   1.0000   1.0000   1.0000   1.0000   1.0000   1.0000
     1.0000   1.0000   1.0000   1.0000   1.0000   1.0000   1.0000   1.0000
     1.0000   1.0000   0.0000   0.0000   0.0000   0.0000   0.0000   0.0000
     0.0000   0.0000

          k =-0.3596 0.2058 0.1475 (  2518 PWs)   bands (ev):

   -71.1504 -71.1501 -67.4453 -67.4450 -39.9472 -39.9465 -39.8730 -39.8698
   -39.8689 -39.8685 -36.2628 -36.2586 -36.2582 -36.2576 -36.2323 -36.2315
    -4.2068  -3.6794  -3.3019  -3.1245   4.2654   4.2663   4.4750   5.1765
     5.5536   5.5841   5.6225   5.6275   6.0138   6.0271   6.1855   6.3236
     7.9443   7.9795   8.0821   8.3871   8.9070   9.2007   9.6073   9.7501
     9.9634   9.9760  11.0960  11.3666  11.4099  11.7262  12.2686  12.5422
    12.7971  12.9654

     occupation numbers 
     1.0000   1.0000   1.0000   1.0000   1.0000   1.0000   1.0000   1.0000
     1.0000   1.0000   1.0000   1.0000   1.0000   1.0000   1.0000   1.0000
     1.0000   1.0000   1.0000   1.0000   1.0000   1.0000   1.0000   1.0000
     1.0000   1.0000   1.0000   1.0000   1.0000   1.0000   1.0000   1.0000
     1.0000   1.0000   1.0000   1.0000   1.0000   1.0000   1.0000   1.0000
     1.0000   1.0000   0.0000   0.0000   0.0000   0.0000   0.0000   0.0000
     0.0000   0.0000

          k =-0.3575 0.2070-0.3802 (  2538 PWs)   bands (ev):

   -71.1503 -71.1502 -67.4452 -67.4450 -39.9468 -39.9464 -39.8730 -39.8713
   -39.8710 -39.8696 -36.2628 -36.2613 -36.2610 -36.2584 -36.2319 -36.2313
    -4.0648  -3.4058  -3.3380  -3.0313   4.4139   4.5252   4.5648   4.9955
     5.3427   5.5041   5.5086   5.6374   5.7839   5.9480   6.1743   6.3089
     7.8770   7.9217   8.2383   8.4802   8.4817   8.7090   9.2990   9.4603
     9.8799   9.9782  10.9754  11.0077  11.3310  11.7196  11.7762  12.4833
    12.5058  12.8677

     occupation numbers 
     1.0000   1.0000   1.0000   1.0000   1.0000   1.0000   1.0000   1.0000
     1.0000   1.0000   1.0000   1.0000   1.0000   1.0000   1.0000   1.0000
     1.0000   1.0000   1.0000   1.0000   1.0000   1.0000   1.0000   1.0000
     1.0000   1.0000   1.0000   1.0000   1.0000   1.0000   1.0000   1.0000
     1.0000   1.0000   1.0000   1.0000   1.0000   1.0000   1.0000   1.0000
     1.0000   1.0000   0.0000   0.0000   0.0000   0.0000   0.0000   0.0000
     0.0000   0.0000

          k =-0.3553 0.2083-0.9078 (  2545 PWs)   bands (ev):

   -71.1502 -71.1502 -67.4450 -67.4450 -39.9464 -39.9461 -39.8749 -39.8748
   -39.8729 -39.8694 -36.2661 -36.2659 -36.2626 -36.2580 -36.2312 -36.2308
    -3.5076  -3.2571  -3.1974  -3.0868   4.3358   4.3805   4.5133   4.5323
     5.3741   5.4157   5.6905   5.7050   5.8841   6.0770   6.2239   6.2632
     7.7378   7.9139   8.1205   8.4026   8.5312   8.6914   8.9120   9.1748
     9.3178   9.8617  10.8367  10.9572  11.0260  11.4287  11.6949  11.8026
    11.9737  12.2219

     occupation numbers 
     1.0000   1.0000   1.0000   1.0000   1.0000   1.0000   1.0000   1.0000
     1.0000   1.0000   1.0000   1.0000   1.0000   1.0000   1.0000   1.0000
     1.0000   1.0000   1.0000   1.0000   1.0000   1.0000   1.0000   1.0000
     1.0000   1.0000   1.0000   1.0000   1.0000   1.0000   1.0000   1.0000
     1.0000   1.0000   1.0000   1.0000   1.0000   1.0000   1.0000   1.0000
     1.0000   1.0000   0.0013   0.0000   0.0000   0.0000   0.0000   0.0000
     0.0000   0.0000

          k =-0.3638 0.2034 1.2029 (  2543 PWs)   bands (ev):

   -71.1502 -71.1501 -67.4450 -67.4450 -39.9464 -39.9461 -39.8750 -39.8747
   -39.8728 -39.8694 -36.2662 -36.2658 -36.2625 -36.2580 -36.2312 -36.2308
    -3.3874  -3.3008  -3.2975  -3.0550   4.1785   4.2476   4.3172   4.3982
     5.4361   5.6589   5.7917   5.9120   5.9214   6.0999   6.1919   6.3954
     7.7011   7.9194   8.1785   8.4624   8.4634   8.7763   9.0049   9.1396
     9.2922  10.1535  10.6825  10.9333  11.1108  11.3195  11.5539  11.8184
    11.9135  12.1478

     occupation numbers 
     1.0000   1.0000   1.0000   1.0000   1.0000   1.0000   1.0000   1.0000
     1.0000   1.0000   1.0000   1.0000   1.0000   1.0000   1.0000   1.0000
     1.0000   1.0000   1.0000   1.0000   1.0000   1.0000   1.0000   1.0000
     1.0000   1.0000   1.0000   1.0000   1.0000   1.0000   1.0000   1.0000
     1.0000   1.0000   1.0000   1.0000   1.0000   1.0000   1.0000   1.0000
     1.0000   1.0000   0.0782   0.0000   0.0000   0.0000   0.0000   0.0000
     0.0000   0.0000

          k =-0.3617 0.2046 0.6752 (  2538 PWs)   bands (ev):

   -71.1503 -71.1502 -67.4452 -67.4451 -39.9468 -39.9465 -39.8729 -39.8713
   -39.8710 -39.8696 -36.2628 -36.2613 -36.2609 -36.2584 -36.2318 -36.2313
    -3.7739  -3.6655  -3.3512  -3.0931   4.5310   4.5351   4.7191   4.7502
     5.2022   5.3968   5.5649   5.7267   5.9029   5.9378   6.2374   6.2642
     7.8289   7.8663   8.2678   8.3605   8.4864   9.1296   9.3564   9.5048
     9.6439  10.1659  10.9317  11.2166  11.3923  11.4972  11.9479  11.9623
    12.3089  12.7380

     occupation numbers 
     1.0000   1.0000   1.0000   1.0000   1.0000   1.0000   1.0000   1.0000
     1.0000   1.0000   1.0000   1.0000   1.0000   1.0000   1.0000   1.0000
     1.0000   1.0000   1.0000   1.0000   1.0000   1.0000   1.0000   1.0000
     1.0000   1.0000   1.0000   1.0000   1.0000   1.0000   1.0000   1.0000
     1.0000   1.0000   1.0000   1.0000   1.0000   1.0000   1.0000   1.0000
     1.0000   1.0000   0.0000   0.0000   0.0000   0.0000   0.0000   0.0000
     0.0000   0.0000

          k = 0.3602-0.6189-0.5277 (  2535 PWs)   bands (ev):

   -71.1503 -71.1502 -67.4452 -67.4451 -39.9468 -39.9465 -39.8729 -39.8713
   -39.8710 -39.8696 -36.2627 -36.2613 -36.2609 -36.2583 -36.2318 -36.2313
    -3.8650  -3.6311  -3.2530  -3.1241   4.5111   4.5226   4.7067   4.7874
     5.2084   5.4012   5.5969   5.6870   5.9095   5.9159   6.2474   6.2593
     7.8428   7.8813   8.2611   8.3772   8.5356   8.9815   9.3749   9.5248
     9.7348  10.0888  10.9683  11.1705  11.3401  11.4683  11.9164  12.0784
    12.3935  12.6876

     occupation numbers 
     1.0000   1.0000   1.0000   1.0000   1.0000   1.0000   1.0000   1.0000
     1.0000   1.0000   1.0000   1.0000   1.0000   1.0000   1.0000   1.0000
     1.0000   1.0000   1.0000   1.0000   1.0000   1.0000   1.0000   1.0000
     1.0000   1.0000   1.0000   1.0000   1.0000   1.0000   1.0000   1.0000
     1.0000   1.0000   1.0000   1.0000   1.0000   1.0000   1.0000   1.0000
     1.0000   1.0000   0.0000   0.0000   0.0000   0.0000   0.0000   0.0000
     0.0000   0.0000

          k = 0.3623-0.6177-1.0554 (  2551 PWs)   bands (ev):

   -71.1502 -71.1502 -67.4451 -67.4450 -39.9465 -39.9461 -39.8749 -39.8748
   -39.8729 -39.8693 -36.2661 -36.2659 -36.2626 -36.2580 -36.2313 -36.2308
    -3.5581  -3.2067  -3.1611  -3.1288   4.4661   4.5218   4.6469   4.7175
     5.1277   5.3161   5.4180   5.7525   5.8389   6.0545   6.2135   6.2493
     7.7943   7.8932   8.0822   8.3463   8.5763   8.6336   8.8667   9.1820
     9.1935   9.6160  10.9633  11.0212  11.1397  11.5739  11.6283  11.8033
    11.9541  12.0956

     occupation numbers 
     1.0000   1.0000   1.0000   1.0000   1.0000   1.0000   1.0000   1.0000
     1.0000   1.0000   1.0000   1.0000   1.0000   1.0000   1.0000   1.0000
     1.0000   1.0000   1.0000   1.0000   1.0000   1.0000   1.0000   1.0000
     1.0000   1.0000   1.0000   1.0000   1.0000   1.0000   1.0000   1.0000
     1.0000   1.0000   1.0000   1.0000   1.0000   1.0000   1.0000   1.0000
     1.0000   1.0000   0.0000   0.0000   0.0000   0.0000   0.0000   0.0000
     0.0000   0.0000

     the Fermi energy is    10.5461 ev

!    total energy              =   -1411.05420105 Ry
     total all-electron energy =    -12462.487815 Ry
     estimated scf accuracy    <          9.7E-13 Ry
     smearing contrib. (-TS)   =      -0.00045852 Ry
     internal energy E=F+TS    =   -1411.05374252 Ry

     The total energy is F=E-TS. E is the sum of the following terms:
     one-electron contribution =    -545.91210921 Ry
     hartree contribution      =     315.23710428 Ry
     xc contribution           =    -132.76691921 Ry
     ewald contribution        =    -552.53875667 Ry
     one-center paw contrib.   =    -495.07306171 Ry
      -> PAW hartree energy AE =     538.10687440 Ry
      -> PAW hartree energy PS =    -540.98005796 Ry
      -> PAW xc energy AE      =    -313.96409211 Ry
      -> PAW xc energy PS      =      83.96017150 Ry
      -> total E_H with PAW    =     312.36392072 Ry
      -> total E_XC with PAW   =    -362.77083982 Ry

     total magnetization       =    -0.00 Bohr mag/cell
     absolute magnetization    =    15.12 Bohr mag/cell

     convergence has been achieved in  24 iterations

     Forces acting on atoms (cartesian axes, Ry/au):

     atom    1 type  1   force =     0.00013565    0.00007778   -0.00006120
     atom    2 type  2   force =     0.00013590    0.00007862   -0.00006166
     atom    3 type  3   force =     0.00013559    0.00007815   -0.00006129
     atom    4 type  4   force =     0.00013535    0.00007862   -0.00006131
     atom    5 type  5   force =    -0.00013574   -0.00007835    0.00006146
     atom    6 type  5   force =    -0.00013575   -0.00007807    0.00006137
     atom    7 type  5   force =    -0.00013554   -0.00007852    0.00006140
     atom    8 type  5   force =    -0.00013545   -0.00007823    0.00006124
     The non-local contrib.  to forces
     atom    1 type  1   force =     0.00050332    0.00029130    0.00062221
     atom    2 type  2   force =     0.00050334    0.00029027    0.00062257
     atom    3 type  3   force =     0.00050372    0.00029110    0.00062204
     atom    4 type  4   force =     0.00050379    0.00029013    0.00062233
     atom    5 type  5   force =     0.00046505    0.00026821    0.00026305
     atom    6 type  5   force =     0.00046501    0.00026886    0.00026285
     atom    7 type  5   force =     0.00046512    0.00026814    0.00026303
     atom    8 type  5   force =     0.00046518    0.00026881    0.00026278
     The ionic contribution  to forces
     atom    1 type  1   force =     0.00524964    0.00299220    0.00024519
     atom    2 type  2   force =     0.00525428    0.00303517    0.00022736
     atom    3 type  3   force =     0.00522311    0.00301444    0.00025361
     atom    4 type  4   force =     0.00521702    0.00304931    0.00024510
     atom    5 type  5   force =    -0.00524222   -0.00301343   -0.00024252
     atom    6 type  5   force =    -0.00524351   -0.00302332   -0.00023788
     atom    7 type  5   force =    -0.00522960   -0.00302208   -0.00024689
     atom    8 type  5   force =    -0.00522872   -0.00303229   -0.00024398
     The local contribution  to forces
     atom    1 type  1   force =    -0.00566156   -0.00323101   -0.00085817
     atom    2 type  2   force =    -0.00566613   -0.00327284   -0.00084078
     atom    3 type  3   force =    -0.00563585   -0.00325280   -0.00086624
     atom    4 type  4   force =    -0.00562978   -0.00328665   -0.00085807
     atom    5 type  5   force =     0.00464542    0.00266921    0.00004718
     atom    6 type  5   force =     0.00464675    0.00267878    0.00004264
     atom    7 type  5   force =     0.00463299    0.00267768    0.00005150
     atom    8 type  5   force =     0.00463215    0.00268760    0.00004867
     The core correction contribution to forces
     atom    1 type  1   force =     0.00003342    0.00001906   -0.00007052
     atom    2 type  2   force =     0.00003342    0.00001939   -0.00007064
     atom    3 type  3   force =     0.00003328    0.00001914   -0.00007047
     atom    4 type  4   force =     0.00003325    0.00001943   -0.00007055
     atom    5 type  5   force =    -0.00001506   -0.00000869   -0.00000615
     atom    6 type  5   force =    -0.00001505   -0.00000870   -0.00000615
     atom    7 type  5   force =    -0.00001506   -0.00000868   -0.00000615
     atom    8 type  5   force =    -0.00001506   -0.00000870   -0.00000614
     The Hubbard contrib.    to forces
     atom    1 type  1   force =     0.00000000    0.00000000    0.00000000
     atom    2 type  2   force =     0.00000000    0.00000000    0.00000000
     atom    3 type  3   force =     0.00000000    0.00000000    0.00000000
     atom    4 type  4   force =     0.00000000    0.00000000    0.00000000
     atom    5 type  5   force =     0.00000000    0.00000000    0.00000000
     atom    6 type  5   force =     0.00000000    0.00000000    0.00000000
     atom    7 type  5   force =     0.00000000    0.00000000    0.00000000
     atom    8 type  5   force =     0.00000000    0.00000000    0.00000000
     The SCF correction term to forces
     atom    1 type  1   force =    -0.00000023   -0.00000015    0.00000020
     atom    2 type  2   force =    -0.00000006    0.00000025   -0.00000006
     atom    3 type  3   force =     0.00000027   -0.00000010   -0.00000013
     atom    4 type  4   force =     0.00000002    0.00000001   -0.00000001
     atom    5 type  5   force =     0.00000001   -0.00000003    0.00000001
     atom    6 type  5   force =     0.00000000   -0.00000007    0.00000002
     atom    7 type  5   force =    -0.00000003    0.00000003    0.00000001
     atom    8 type  5   force =    -0.00000004   -0.00000003    0.00000004

     Total force =     0.000476     Total SCF correction =     0.000001


     Computing stress (Cartesian axis) and pressure

          total   stress  (Ry/bohr**3)                   (kbar)     P=     -344.18
  -0.00233812   0.00000193   0.00000222         -343.95        0.28        0.33
   0.00000193  -0.00234035   0.00000128            0.28     -344.28        0.19
   0.00000222   0.00000128  -0.00234057            0.33        0.19     -344.31

     kinetic stress (kbar)  19639.05    -23.34     31.44
                              -23.34  19666.00     18.15
                               31.44     18.15  19651.23

     local   stress (kbar)    367.23    125.43   -215.46
                              125.43    222.40   -124.40
                             -215.46   -124.40    311.29

     nonloc. stress (kbar)  -1215.99      7.92    -10.62
                                7.92  -1225.14     -6.13
                              -10.62     -6.13  -1219.67

     hartree stress (kbar)  16868.22    -48.97     77.75
                              -48.97  16924.76     44.89
                               77.75     44.89  16891.78

     exc-cor stress (kbar)  -2994.33     -0.37      0.62
                               -0.37  -2993.90      0.36
                                0.62      0.36  -2994.13

     corecor stress (kbar)  -3363.85      0.22     -0.50
                                0.22  -3364.10     -0.29
                               -0.50     -0.29  -3364.56

     ewald   stress (kbar) -29644.27    -60.60    117.10
                              -60.60 -29574.30     67.61
                              117.10     67.61 -29620.25

     hubbard stress (kbar)      0.00      0.00      0.00
                                0.00      0.00      0.00
                                0.00      0.00      0.00

     DFT-D   stress (kbar)      0.00      0.00      0.00
                                0.00      0.00      0.00
                                0.00      0.00      0.00

     XDM     stress (kbar)      0.00      0.00      0.00
                                0.00      0.00      0.00
                                0.00      0.00      0.00

     dft-nl  stress (kbar)      0.00      0.00      0.00
                                0.00      0.00      0.00
                                0.00      0.00      0.00

     TS-vdW  stress (kbar)      0.00      0.00      0.00
                                0.00      0.00      0.00
                                0.00      0.00      0.00

     MDB     stress (kbar)      0.00      0.00      0.00
                                0.00      0.00      0.00
                                0.00      0.00      0.00

     3D-RISM stress (kbar)      0.00      0.00      0.00
                                0.00      0.00      0.00
                                0.00      0.00      0.00


     Writing all to output data dir ./temp/mns.save/ :
     XML data file, charge density, pseudopotentials, collected wavefunctions

     init_run     :     10.48s CPU     10.69s WALL (       2 calls)
     electrons    :   2559.61s CPU   2619.80s WALL (       8 calls)
     update_pot   :      5.46s CPU      5.58s WALL (       6 calls)
     forces       :     34.37s CPU     35.40s WALL (       8 calls)
     stress       :     94.88s CPU     97.23s WALL (       8 calls)

     Called by init_run:
     wfcinit      :      7.23s CPU      7.35s WALL (       2 calls)
     wfcinit:atom :      0.04s CPU      0.04s WALL (      92 calls)
     wfcinit:wfcr :      6.87s CPU      6.99s WALL (      92 calls)
     potinit      :      1.84s CPU      1.88s WALL (       2 calls)
     hinit0       :      0.92s CPU      0.92s WALL (       2 calls)

     Called by electrons:
     c_bands      :   2112.39s CPU   2163.23s WALL (     147 calls)
     sum_band     :    280.75s CPU    287.71s WALL (     147 calls)
     v_of_rho     :      5.41s CPU      5.55s WALL (     150 calls)
     v_h          :      0.17s CPU      0.18s WALL (     150 calls)
     v_xc         :      5.78s CPU      5.94s WALL (     166 calls)
     newd         :     41.10s CPU     41.79s WALL (     150 calls)
     PAW_pot      :    132.17s CPU    133.80s WALL (     156 calls)
     mix_rho      :      1.27s CPU      1.30s WALL (     147 calls)

     Called by c_bands:
     init_us_2    :     18.73s CPU     19.21s WALL (   14628 calls)
     cegterg      :   2071.52s CPU   2121.46s WALL (    6763 calls)

     Called by sum_band:
     sum_band:wei :      0.12s CPU      0.12s WALL (     147 calls)
     sum_band:loo :    211.57s CPU    217.68s WALL (     147 calls)
     sum_band:buf :      2.93s CPU      2.98s WALL (    6762 calls)
     sum_band:ini :      8.63s CPU      8.78s WALL (    6762 calls)
     sum_band:cal :    128.03s CPU    130.45s WALL (    7038 calls)
     sum_band:bec :      1.59s CPU      1.60s WALL (    7038 calls)
     addusdens    :     68.03s CPU     68.85s WALL (     147 calls)
                                        0.00s GPU  (     147 calls)
     addusd:skk   :      0.08s CPU      0.08s WALL (     735 calls)
                                        0.00s GPU  (     735 calls)

     Called by *egterg:
     cdiaghg      :    106.27s CPU    107.71s WALL (   31688 calls)
     cegterg:over :    165.77s CPU    168.70s WALL (   25432 calls)
     cegterg:upda :     92.01s CPU     93.32s WALL (   25432 calls)
     cegterg:last :    273.69s CPU    278.13s WALL (   15542 calls)
     h_psi        :   1064.93s CPU   1099.15s WALL (   32287 calls)
     s_psi        :    293.91s CPU    298.32s WALL (   32287 calls)
     g_psi        :      2.31s CPU      2.34s WALL (   25432 calls)

     Called by h_psi:
     h_psi:calbec :    342.90s CPU    350.74s WALL (   32287 calls)
     vloc_psi     :    408.60s CPU    430.02s WALL (   32287 calls)
     add_vuspsi   :    308.06s CPU    312.99s WALL (   32287 calls)

     General routines
     calbec       :    505.50s CPU    516.87s WALL (   41165 calls)
     fft          :      2.71s CPU      2.81s WALL (    4070 calls)
     ffts         :      0.41s CPU      0.41s WALL (     594 calls)
     fftw         :    411.00s CPU    432.62s WALL ( 2170474 calls)
     interpolate  :      0.57s CPU      0.58s WALL (     300 calls)

     Parallel routines

     PAW routines
     PAW_pot      :    132.17s CPU    133.80s WALL (     156 calls)

     PWSCF        :  45m17.94s CPU  46m22.45s WALL


   This run was terminated on:  13: 3:58  20Jan2025            

=------------------------------------------------------------------------------=
   JOB DONE.
=------------------------------------------------------------------------------=
