
     Program PWSCF v.7.3.1 starts on 11Dec2025 at 14: 6:10 

     This program is part of the open-source Quantum ESPRESSO suite
     for quantum simulation of materials; please cite
         "P. Giannozzi et al., J. Phys.:Condens. Matter 21 395502 (2009);
         "P. Giannozzi et al., J. Phys.:Condens. Matter 29 465901 (2017);
         "P. Giannozzi et al., J. Chem. Phys. 152 154105 (2020);
          URL http://www.quantum-espresso.org", 
     in publications or presentations arising from this work. More details at
     http://www.quantum-espresso.org/quote

     Parallel version (MPI), running on     6 processors

     MPI processes distributed on     1 nodes
     22102 MiB available memory on the printing compute node when the environment starts

     Reading input from vc_relax-afm.in

     Current dimensions of program PWSCF are:
     Max number of different atomic species (ntypx) = 10
     Max number of k-points (npk) =  40000
     Max angular momentum in pseudopotentials (lmaxx) =  4
     file Fe.pbesol-spn-kjpaw_psl.1.0.0.UPF: wavefunction(s)  3P 3D renormalized
     file Fe.pbesol-spn-kjpaw_psl.1.0.0.UPF: wavefunction(s)  3P 3D renormalized

     R & G space division:  proc/nbgrp/npool/nimage =       6
     Subspace diagonalization in iterative solution of the eigenvalue problem:
     a serial algorithm will be used


     Parallelization info
     --------------------
     sticks:   dense  smooth     PW     G-vecs:    dense   smooth      PW
     Min         372     184     55                13250     4684     742
     Max         373     185     57                13251     4687     743
     Sum        2233    1109    333                79501    28113    4457

     Using Slab Decomposition



     bravais-lattice index     =            1
     lattice parameter (alat)  =       5.4104  a.u.
     unit-cell volume          =     158.3714 (a.u.)^3
     number of atoms/cell      =            2
     number of atomic types    =            2
     number of electrons       =        32.00
     number of Kohn-Sham states=           20
     kinetic-energy cutoff     =     120.0000  Ry
     charge density cutoff     =     960.0000  Ry
     scf convergence threshold =      1.0E-09
     mixing beta               =       0.7000
     number of iterations used =            8  plain     mixing
     energy convergence thresh.=      1.0E-05
     force convergence thresh. =      1.0E-04
     press convergence thresh. =      5.0E-01
     Exchange-correlation= SLA  PW   PSX  PSC
                           (   1   4  10   8   0   0   0)
     nstep                     =           50


     celldm(1)=   5.410353  celldm(2)=   0.000000  celldm(3)=   0.000000
     celldm(4)=   0.000000  celldm(5)=   0.000000  celldm(6)=   0.000000

     crystal axes: (cart. coord. in units of alat)
               a(1) = (   1.000000   0.000000   0.000000 )  
               a(2) = (   0.000000   1.000000   0.000000 )  
               a(3) = (   0.000000   0.000000   1.000000 )  

     reciprocal axes: (cart. coord. in units 2 pi/alat)
               b(1) = (  1.000000  0.000000  0.000000 )  
               b(2) = (  0.000000  1.000000  0.000000 )  
               b(3) = (  0.000000  0.000000  1.000000 )  


     PseudoPot. # 1 for Fe read from file:
     ./../../pseudos/Fe.pbesol-spn-kjpaw_psl.1.0.0.UPF
     MD5 check sum: e30d5f36a6f0cb983ee41abee56170da
     Pseudo is Projector augmented-wave + core cor, Zval = 16.0
     Generated using &quot;atomic&quot; code by A. Dal Corso  v.6.3
     Shape of augmentation charge: PSQ
     Using radial grid of 1191 points,  6 beta functions with: 
                l(1) =   0
                l(2) =   0
                l(3) =   1
                l(4) =   1
                l(5) =   2
                l(6) =   2
     Q(r) pseudized with 0 coefficients 


     PseudoPot. # 2 for Fe read from file:
     ./../../pseudos/Fe.pbesol-spn-kjpaw_psl.1.0.0.UPF
     MD5 check sum: e30d5f36a6f0cb983ee41abee56170da
     Pseudo is Projector augmented-wave + core cor, Zval = 16.0
     Generated using &quot;atomic&quot; code by A. Dal Corso  v.6.3
     Shape of augmentation charge: PSQ
     Using radial grid of 1191 points,  6 beta functions with: 
                l(1) =   0
                l(2) =   0
                l(3) =   1
                l(4) =   1
                l(5) =   2
                l(6) =   2
     Q(r) pseudized with 0 coefficients 


     atomic species   valence    mass     pseudopotential
     Fe1              16.00    55.84500     Fe( 1.00)
     Fe2              16.00    55.84500     Fe( 1.00)

     Starting magnetic structure 
     atomic species   magnetization
     Fe1             0.300
     Fe2            -0.300

     48 Sym. Ops., with inversion, found



   Cartesian axes

     site n.     atom                  positions (alat units)
         1        Fe1    tau(   1) = (   0.0000000   0.0000000   0.0000000  )
         2        Fe2    tau(   2) = (   0.5000000   0.5000000   0.5000000  )

     number of k points=    56  Gaussian smearing, width (Ry)=  0.0200
                       cart. coord. in units 2pi/alat
        k(    1) = (   0.0000000   0.0000000   0.0000000), wk =   0.0007513
        k(    2) = (   0.0000000   0.0000000   0.0909091), wk =   0.0045079
        k(    3) = (   0.0000000   0.0000000   0.1818182), wk =   0.0045079
        k(    4) = (   0.0000000   0.0000000   0.2727273), wk =   0.0045079
        k(    5) = (   0.0000000   0.0000000   0.3636364), wk =   0.0045079
        k(    6) = (   0.0000000   0.0000000   0.4545455), wk =   0.0045079
        k(    7) = (   0.0000000   0.0909091   0.0909091), wk =   0.0090158
        k(    8) = (   0.0000000   0.0909091   0.1818182), wk =   0.0180316
        k(    9) = (   0.0000000   0.0909091   0.2727273), wk =   0.0180316
        k(   10) = (   0.0000000   0.0909091   0.3636364), wk =   0.0180316
        k(   11) = (   0.0000000   0.0909091   0.4545455), wk =   0.0180316
        k(   12) = (   0.0000000   0.1818182   0.1818182), wk =   0.0090158
        k(   13) = (   0.0000000   0.1818182   0.2727273), wk =   0.0180316
        k(   14) = (   0.0000000   0.1818182   0.3636364), wk =   0.0180316
        k(   15) = (   0.0000000   0.1818182   0.4545455), wk =   0.0180316
        k(   16) = (   0.0000000   0.2727273   0.2727273), wk =   0.0090158
        k(   17) = (   0.0000000   0.2727273   0.3636364), wk =   0.0180316
        k(   18) = (   0.0000000   0.2727273   0.4545455), wk =   0.0180316
        k(   19) = (   0.0000000   0.3636364   0.3636364), wk =   0.0090158
        k(   20) = (   0.0000000   0.3636364   0.4545455), wk =   0.0180316
        k(   21) = (   0.0000000   0.4545455   0.4545455), wk =   0.0090158
        k(   22) = (   0.0909091   0.0909091   0.0909091), wk =   0.0060105
        k(   23) = (   0.0909091   0.0909091   0.1818182), wk =   0.0180316
        k(   24) = (   0.0909091   0.0909091   0.2727273), wk =   0.0180316
        k(   25) = (   0.0909091   0.0909091   0.3636364), wk =   0.0180316
        k(   26) = (   0.0909091   0.0909091   0.4545455), wk =   0.0180316
        k(   27) = (   0.0909091   0.1818182   0.1818182), wk =   0.0180316
        k(   28) = (   0.0909091   0.1818182   0.2727273), wk =   0.0360631
        k(   29) = (   0.0909091   0.1818182   0.3636364), wk =   0.0360631
        k(   30) = (   0.0909091   0.1818182   0.4545455), wk =   0.0360631
        k(   31) = (   0.0909091   0.2727273   0.2727273), wk =   0.0180316
        k(   32) = (   0.0909091   0.2727273   0.3636364), wk =   0.0360631
        k(   33) = (   0.0909091   0.2727273   0.4545455), wk =   0.0360631
        k(   34) = (   0.0909091   0.3636364   0.3636364), wk =   0.0180316
        k(   35) = (   0.0909091   0.3636364   0.4545455), wk =   0.0360631
        k(   36) = (   0.0909091   0.4545455   0.4545455), wk =   0.0180316
        k(   37) = (   0.1818182   0.1818182   0.1818182), wk =   0.0060105
        k(   38) = (   0.1818182   0.1818182   0.2727273), wk =   0.0180316
        k(   39) = (   0.1818182   0.1818182   0.3636364), wk =   0.0180316
        k(   40) = (   0.1818182   0.1818182   0.4545455), wk =   0.0180316
        k(   41) = (   0.1818182   0.2727273   0.2727273), wk =   0.0180316
        k(   42) = (   0.1818182   0.2727273   0.3636364), wk =   0.0360631
        k(   43) = (   0.1818182   0.2727273   0.4545455), wk =   0.0360631
        k(   44) = (   0.1818182   0.3636364   0.3636364), wk =   0.0180316
        k(   45) = (   0.1818182   0.3636364   0.4545455), wk =   0.0360631
        k(   46) = (   0.1818182   0.4545455   0.4545455), wk =   0.0180316
        k(   47) = (   0.2727273   0.2727273   0.2727273), wk =   0.0060105
        k(   48) = (   0.2727273   0.2727273   0.3636364), wk =   0.0180316
        k(   49) = (   0.2727273   0.2727273   0.4545455), wk =   0.0180316
        k(   50) = (   0.2727273   0.3636364   0.3636364), wk =   0.0180316
        k(   51) = (   0.2727273   0.3636364   0.4545455), wk =   0.0360631
        k(   52) = (   0.2727273   0.4545455   0.4545455), wk =   0.0180316
        k(   53) = (   0.3636364   0.3636364   0.3636364), wk =   0.0060105
        k(   54) = (   0.3636364   0.3636364   0.4545455), wk =   0.0180316
        k(   55) = (   0.3636364   0.4545455   0.4545455), wk =   0.0180316
        k(   56) = (   0.4545455   0.4545455   0.4545455), wk =   0.0060105

     Dense  grid:    79501 G-vectors     FFT dimensions: (  54,  54,  54)

     Smooth grid:    28113 G-vectors     FFT dimensions: (  40,  40,  40)

     Estimated max dynamical RAM per process >      84.11 MB

     Estimated total dynamical RAM >     504.64 MB
     Generating pointlists ...
     new r_m :   0.3572 (alat units)  1.9328 (a.u.) for type    1
     new r_m :   0.3572 (alat units)  1.9328 (a.u.) for type    2

     Initial potential from superposition of free atoms

     starting charge      31.9992, renormalised to      32.0000
     Starting wfcs are   20 randomized atomic wfcs
     Checking if some PAW data can be deallocated... 

     total cpu time spent up to now is        3.0 secs

     Self-consistent Calculation

     iteration #  1     ecut=   120.00 Ry     beta= 0.70
     Davidson diagonalization with overlap
     ethr =  1.00E-02,  avg # of iterations =  3.5

     Threshold (ethr) on eigenvalues was too large:
     Diagonalizing with lowered threshold

     Davidson diagonalization with overlap
     ethr =  6.75E-04,  avg # of iterations =  2.0

     negative rho (up, down):  3.379E-05 3.431E-05

     total cpu time spent up to now is       14.2 secs

     total energy              =    -653.68746362 Ry
     estimated scf accuracy    <       0.22552941 Ry

     total magnetization       =     0.01 Bohr mag/cell
     absolute magnetization    =     5.99 Bohr mag/cell

     iteration #  2     ecut=   120.00 Ry     beta= 0.70
     Davidson diagonalization with overlap
     ethr =  7.05E-04,  avg # of iterations =  3.0

     negative rho (up, down):  3.767E-05 3.684E-05

     total cpu time spent up to now is       20.6 secs

     total energy              =    -653.70069919 Ry
     estimated scf accuracy    <       0.14167769 Ry

     total magnetization       =    -0.01 Bohr mag/cell
     absolute magnetization    =     5.36 Bohr mag/cell

     iteration #  3     ecut=   120.00 Ry     beta= 0.70
     Davidson diagonalization with overlap
     ethr =  4.43E-04,  avg # of iterations =  2.5

     negative rho (up, down):  7.003E-05 8.218E-05

     total cpu time spent up to now is       26.7 secs

     total energy              =    -653.74554817 Ry
     estimated scf accuracy    <       0.06338874 Ry

     total magnetization       =     0.08 Bohr mag/cell
     absolute magnetization    =     5.10 Bohr mag/cell

     iteration #  4     ecut=   120.00 Ry     beta= 0.70
     Davidson diagonalization with overlap
     ethr =  1.98E-04,  avg # of iterations =  2.7

     negative rho (up, down):  7.609E-05 7.636E-05

     total cpu time spent up to now is       32.6 secs

     total energy              =    -653.72364412 Ry
     estimated scf accuracy    <       0.92399915 Ry

     total magnetization       =    -1.03 Bohr mag/cell
     absolute magnetization    =     4.28 Bohr mag/cell

     iteration #  5     ecut=   120.00 Ry     beta= 0.70
     Davidson diagonalization with overlap
     ethr =  1.98E-04,  avg # of iterations =  2.2

     total cpu time spent up to now is       38.0 secs

     total energy              =    -653.75553724 Ry
     estimated scf accuracy    <       0.00486112 Ry

     total magnetization       =     0.03 Bohr mag/cell
     absolute magnetization    =     4.35 Bohr mag/cell

     iteration #  6     ecut=   120.00 Ry     beta= 0.70
     Davidson diagonalization with overlap
     ethr =  1.52E-05,  avg # of iterations =  4.1

     total cpu time spent up to now is       45.4 secs

     total energy              =    -653.76526111 Ry
     estimated scf accuracy    <       0.00824536 Ry

     total magnetization       =     0.12 Bohr mag/cell
     absolute magnetization    =     3.53 Bohr mag/cell

     iteration #  7     ecut=   120.00 Ry     beta= 0.70
     Davidson diagonalization with overlap
     ethr =  1.52E-05,  avg # of iterations =  2.3

     total cpu time spent up to now is       51.1 secs

     total energy              =    -653.76653851 Ry
     estimated scf accuracy    <       0.00041422 Ry

     total magnetization       =     0.04 Bohr mag/cell
     absolute magnetization    =     3.51 Bohr mag/cell

     iteration #  8     ecut=   120.00 Ry     beta= 0.70
     Davidson diagonalization with overlap
     ethr =  1.29E-06,  avg # of iterations =  1.9

     total cpu time spent up to now is       56.2 secs

     total energy              =    -653.76663489 Ry
     estimated scf accuracy    <       0.00010427 Ry

     total magnetization       =     0.08 Bohr mag/cell
     absolute magnetization    =     3.44 Bohr mag/cell

     iteration #  9     ecut=   120.00 Ry     beta= 0.70
     Davidson diagonalization with overlap
     ethr =  3.26E-07,  avg # of iterations =  2.4

     total cpu time spent up to now is       61.8 secs

     total energy              =    -653.76666525 Ry
     estimated scf accuracy    <       0.00000679 Ry

     total magnetization       =     0.09 Bohr mag/cell
     absolute magnetization    =     3.40 Bohr mag/cell

     iteration # 10     ecut=   120.00 Ry     beta= 0.70
     Davidson diagonalization with overlap
     ethr =  2.12E-08,  avg # of iterations =  2.6

     total cpu time spent up to now is       67.2 secs

     total energy              =    -653.76663896 Ry
     estimated scf accuracy    <       0.00000696 Ry

     total magnetization       =     0.10 Bohr mag/cell
     absolute magnetization    =     3.40 Bohr mag/cell

     iteration # 11     ecut=   120.00 Ry     beta= 0.70
     Davidson diagonalization with overlap
     ethr =  2.12E-08,  avg # of iterations =  4.6

     total cpu time spent up to now is       75.5 secs

     total energy              =    -653.76664387 Ry
     estimated scf accuracy    <       0.00012643 Ry

     total magnetization       =     0.06 Bohr mag/cell
     absolute magnetization    =     3.43 Bohr mag/cell

     iteration # 12     ecut=   120.00 Ry     beta= 0.70
     Davidson diagonalization with overlap
     ethr =  2.12E-08,  avg # of iterations =  3.3

     total cpu time spent up to now is       81.7 secs

     total energy              =    -653.76664609 Ry
     estimated scf accuracy    <       0.00006404 Ry

     total magnetization       =     0.04 Bohr mag/cell
     absolute magnetization    =     3.44 Bohr mag/cell

     iteration # 13     ecut=   120.00 Ry     beta= 0.70
     Davidson diagonalization with overlap
     ethr =  2.12E-08,  avg # of iterations =  2.2

     total cpu time spent up to now is       87.1 secs

     total energy              =    -653.76663885 Ry
     estimated scf accuracy    <       0.00004012 Ry

     total magnetization       =     0.02 Bohr mag/cell
     absolute magnetization    =     3.42 Bohr mag/cell

     iteration # 14     ecut=   120.00 Ry     beta= 0.70
     Davidson diagonalization with overlap
     ethr =  2.12E-08,  avg # of iterations =  3.6

     total cpu time spent up to now is       93.9 secs

     total energy              =    -653.76665133 Ry
     estimated scf accuracy    <       0.00000076 Ry

     total magnetization       =     0.00 Bohr mag/cell
     absolute magnetization    =     3.40 Bohr mag/cell

     iteration # 15     ecut=   120.00 Ry     beta= 0.70
     Davidson diagonalization with overlap
     ethr =  2.38E-09,  avg # of iterations =  2.1

     total cpu time spent up to now is       99.3 secs

     total energy              =    -653.76665156 Ry
     estimated scf accuracy    <       0.00000018 Ry

     total magnetization       =     0.00 Bohr mag/cell
     absolute magnetization    =     3.39 Bohr mag/cell

     iteration # 16     ecut=   120.00 Ry     beta= 0.70
     Davidson diagonalization with overlap
     ethr =  5.57E-10,  avg # of iterations =  2.7

     total cpu time spent up to now is      105.0 secs

     total energy              =    -653.76665163 Ry
     estimated scf accuracy    <       0.00000003 Ry

     total magnetization       =     0.00 Bohr mag/cell
     absolute magnetization    =     3.39 Bohr mag/cell

     iteration # 17     ecut=   120.00 Ry     beta= 0.70
     Davidson diagonalization with overlap
     ethr =  8.25E-11,  avg # of iterations =  3.6

     Magnetic moment per site  (integrated on atomic sphere of radius R)
     atom   1 (R=0.357)  charge= 14.4154  magn=  1.6329
     atom   2 (R=0.357)  charge= 14.4154  magn= -1.6328

     total cpu time spent up to now is      111.4 secs

     End of self-consistent calculation

     Number of k-points >= 100: set verbosity='high' to print the bands.

     the Fermi energy is    17.6860 ev

!    total energy              =    -653.76665168 Ry
     total all-electron energy =     -5086.418070 Ry
     estimated scf accuracy    <          2.0E-10 Ry
     smearing contrib. (-TS)   =      -0.01514550 Ry
     internal energy E=F+TS    =    -653.75150618 Ry

     The total energy is F=E-TS. E is the sum of the following terms:
     one-electron contribution =    -224.85475663 Ry
     hartree contribution      =     131.63484735 Ry
     xc contribution           =     -54.68524103 Ry
     ewald contribution        =    -344.39297617 Ry
     one-center paw contrib.   =    -161.45337970 Ry

     total magnetization       =     0.00 Bohr mag/cell
     absolute magnetization    =     3.39 Bohr mag/cell

     convergence has been achieved in  17 iterations

     Forces acting on atoms (cartesian axes, Ry/au):

     atom    1 type  1   force =     0.00000000    0.00000000    0.00000000
     atom    2 type  2   force =     0.00000000    0.00000000    0.00000000

     Total force =     0.000000     Total SCF correction =     0.000000


     Computing stress (Cartesian axis) and pressure

          total   stress  (Ry/bohr**3)                   (kbar)     P=     -182.78
  -0.00124250   0.00000000   0.00000000         -182.78        0.00        0.00
   0.00000000  -0.00124250   0.00000000            0.00     -182.78        0.00
   0.00000000   0.00000000  -0.00124250            0.00        0.00     -182.78


     BFGS Geometry Optimization
     Energy error            =      0.0E+00 Ry
     Gradient error          =      0.0E+00 Ry/Bohr
     Cell gradient error     =      1.8E+02 kbar

     number of scf cycles    =   1
     number of bfgs steps    =   0

     enthalpy           new  =    -653.7666516815 Ry

     new trust radius        =       0.0781816480 bohr
ibrav =      1
 celldm(1) =      5.24229377
Input lattice vectors:
     0.96893750     0.00000000     0.00000000
     0.00000000     0.96893750     0.00000000
     0.00000000     0.00000000     0.96893750
New lattice vectors in INITIAL alat:
     0.96893750     0.00000000     0.00000000
     0.00000000     0.96893750     0.00000000
     0.00000000     0.00000000     0.96893750
New lattice vectors in NEW alat (for information only):
     1.00000000     0.00000000     0.00000000
     0.00000000     1.00000000     0.00000000
     0.00000000     0.00000000     1.00000000
Discrepancy in bohr =     0.000000    0.000000    0.000000
     new conv_thr            =       0.0000000010 Ry

     new unit-cell volume =    144.06685 a.u.^3 (    21.34850 Ang^3 )
     density =      8.68752 g/cm^3

CELL_PARAMETERS (alat=  5.41035287)
   0.968937498   0.000000000   0.000000000
   0.000000000   0.968937498   0.000000000
   0.000000000   0.000000000   0.968937498

ATOMIC_POSITIONS (crystal)
Fe1              0.0000000000        0.0000000000        0.0000000000
Fe2              0.5000000000        0.5000000000        0.5000000000



     Writing config-only to output data dir ./temp/fe-afm.save/ :
     XML data file
     NEW-OLD atomic charge density approx. for the potential
     Generating pointlists ...
     new r_m :   0.3461 (alat units)  1.8727 (a.u.) for type    1
     new r_m :   0.3461 (alat units)  1.8727 (a.u.) for type    2

     total cpu time spent up to now is      115.8 secs

     Self-consistent Calculation

     iteration #  1     ecut=   120.00 Ry     beta= 0.70
     Davidson diagonalization with overlap
     ethr =  1.00E-06,  avg # of iterations =  6.6

     total cpu time spent up to now is      127.3 secs

     total energy              =    -653.77249057 Ry
     estimated scf accuracy    <       0.01159350 Ry

     total magnetization       =     0.00 Bohr mag/cell
     absolute magnetization    =     3.03 Bohr mag/cell

     iteration #  2     ecut=   120.00 Ry     beta= 0.70
     Davidson diagonalization with overlap
     ethr =  3.62E-05,  avg # of iterations =  3.4

     total cpu time spent up to now is      134.7 secs

     total energy              =    -653.77423821 Ry
     estimated scf accuracy    <       0.04206516 Ry

     total magnetization       =     0.00 Bohr mag/cell
     absolute magnetization    =     2.95 Bohr mag/cell

     iteration #  3     ecut=   120.00 Ry     beta= 0.70
     Davidson diagonalization with overlap
     ethr =  3.62E-05,  avg # of iterations =  3.2

     total cpu time spent up to now is      140.6 secs

     total energy              =    -653.78069618 Ry
     estimated scf accuracy    <       0.00150871 Ry

     total magnetization       =     0.00 Bohr mag/cell
     absolute magnetization    =     2.86 Bohr mag/cell

     iteration #  4     ecut=   120.00 Ry     beta= 0.70
     Davidson diagonalization with overlap
     ethr =  4.71E-06,  avg # of iterations =  3.6

     total cpu time spent up to now is      147.1 secs

     total energy              =    -653.78252760 Ry
     estimated scf accuracy    <       0.00624876 Ry

     total magnetization       =     0.00 Bohr mag/cell
     absolute magnetization    =     2.40 Bohr mag/cell

     iteration #  5     ecut=   120.00 Ry     beta= 0.70
     Davidson diagonalization with overlap
     ethr =  4.71E-06,  avg # of iterations =  2.6

     total cpu time spent up to now is      152.4 secs

     total energy              =    -653.77993307 Ry
     estimated scf accuracy    <       0.01987508 Ry

     total magnetization       =    -0.04 Bohr mag/cell
     absolute magnetization    =     2.30 Bohr mag/cell

     iteration #  6     ecut=   120.00 Ry     beta= 0.70
     Davidson diagonalization with overlap
     ethr =  4.71E-06,  avg # of iterations =  2.8

     total cpu time spent up to now is      157.9 secs

     total energy              =    -653.77980880 Ry
     estimated scf accuracy    <       0.00018470 Ry

     total magnetization       =     0.00 Bohr mag/cell
     absolute magnetization    =     2.17 Bohr mag/cell

     iteration #  7     ecut=   120.00 Ry     beta= 0.70
     Davidson diagonalization with overlap
     ethr =  5.77E-07,  avg # of iterations =  2.9

     total cpu time spent up to now is      163.8 secs

     total energy              =    -653.78003420 Ry
     estimated scf accuracy    <       0.00010862 Ry

     total magnetization       =     0.00 Bohr mag/cell
     absolute magnetization    =     2.02 Bohr mag/cell

     iteration #  8     ecut=   120.00 Ry     beta= 0.70
     Davidson diagonalization with overlap
     ethr =  3.39E-07,  avg # of iterations =  2.0

     total cpu time spent up to now is      168.9 secs

     total energy              =    -653.78004612 Ry
     estimated scf accuracy    <       0.00000403 Ry

     total magnetization       =     0.01 Bohr mag/cell
     absolute magnetization    =     2.02 Bohr mag/cell

     iteration #  9     ecut=   120.00 Ry     beta= 0.70
     Davidson diagonalization with overlap
     ethr =  1.26E-08,  avg # of iterations =  3.7

     total cpu time spent up to now is      174.9 secs

     total energy              =    -653.78004900 Ry
     estimated scf accuracy    <       0.00000141 Ry

     total magnetization       =     0.01 Bohr mag/cell
     absolute magnetization    =     2.03 Bohr mag/cell

     iteration # 10     ecut=   120.00 Ry     beta= 0.70
     Davidson diagonalization with overlap
     ethr =  4.41E-09,  avg # of iterations =  1.8

     total cpu time spent up to now is      179.6 secs

     total energy              =    -653.78004911 Ry
     estimated scf accuracy    <       0.00000354 Ry

     total magnetization       =     0.01 Bohr mag/cell
     absolute magnetization    =     2.03 Bohr mag/cell

     iteration # 11     ecut=   120.00 Ry     beta= 0.70
     Davidson diagonalization with overlap
     ethr =  4.41E-09,  avg # of iterations =  1.0

     total cpu time spent up to now is      183.8 secs

     total energy              =    -653.78004746 Ry
     estimated scf accuracy    <       0.00000208 Ry

     total magnetization       =     0.00 Bohr mag/cell
     absolute magnetization    =     2.02 Bohr mag/cell

     iteration # 12     ecut=   120.00 Ry     beta= 0.70
     Davidson diagonalization with overlap
     ethr =  4.41E-09,  avg # of iterations =  2.4

     total cpu time spent up to now is      189.1 secs

     total energy              =    -653.78004792 Ry
     estimated scf accuracy    <       0.00000016 Ry

     total magnetization       =    -0.00 Bohr mag/cell
     absolute magnetization    =     2.03 Bohr mag/cell

     iteration # 13     ecut=   120.00 Ry     beta= 0.70
     Davidson diagonalization with overlap
     ethr =  5.04E-10,  avg # of iterations =  3.2

     total cpu time spent up to now is      194.7 secs

     total energy              =    -653.78004796 Ry
     estimated scf accuracy    <       0.00000002 Ry

     total magnetization       =    -0.00 Bohr mag/cell
     absolute magnetization    =     2.03 Bohr mag/cell

     iteration # 14     ecut=   120.00 Ry     beta= 0.70
     Davidson diagonalization with overlap
     ethr =  5.50E-11,  avg # of iterations =  1.8

     total cpu time spent up to now is      199.3 secs

     total energy              =    -653.78004797 Ry
     estimated scf accuracy    <          3.1E-09 Ry

     total magnetization       =     0.00 Bohr mag/cell
     absolute magnetization    =     2.03 Bohr mag/cell

     iteration # 15     ecut=   120.00 Ry     beta= 0.70
     Davidson diagonalization with overlap
     ethr =  9.68E-12,  avg # of iterations =  3.3

     total cpu time spent up to now is      205.0 secs

     total energy              =    -653.78004797 Ry
     estimated scf accuracy    <          1.7E-09 Ry

     total magnetization       =     0.00 Bohr mag/cell
     absolute magnetization    =     2.03 Bohr mag/cell

     iteration # 16     ecut=   120.00 Ry     beta= 0.70
     Davidson diagonalization with overlap
     ethr =  5.41E-12,  avg # of iterations =  2.1

     Magnetic moment per site  (integrated on atomic sphere of radius R)
     atom   1 (R=0.346)  charge= 14.3384  magn=  0.9761
     atom   2 (R=0.346)  charge= 14.3384  magn= -0.9761

     total cpu time spent up to now is      209.9 secs

     End of self-consistent calculation

     Number of k-points >= 100: set verbosity='high' to print the bands.

     the Fermi energy is    19.7137 ev

!    total energy              =    -653.78004797 Ry
     total all-electron energy =     -5086.431467 Ry
     estimated scf accuracy    <          5.6E-12 Ry
     smearing contrib. (-TS)   =      -0.01503113 Ry
     internal energy E=F+TS    =    -653.76501684 Ry

     The total energy is F=E-TS. E is the sum of the following terms:
     one-electron contribution =    -207.35855236 Ry
     hartree contribution      =     125.24160415 Ry
     xc contribution           =     -54.75839106 Ry
     ewald contribution        =    -355.43363426 Ry
     one-center paw contrib.   =    -161.45604330 Ry

     total magnetization       =    -0.00 Bohr mag/cell
     absolute magnetization    =     2.03 Bohr mag/cell

     convergence has been achieved in  16 iterations

     Forces acting on atoms (cartesian axes, Ry/au):

     atom    1 type  1   force =     0.00000000    0.00000000    0.00000000
     atom    2 type  2   force =     0.00000000    0.00000000    0.00000000

     Total force =     0.000000     Total SCF correction =     0.000000


     Computing stress (Cartesian axis) and pressure

          total   stress  (Ry/bohr**3)                   (kbar)     P=      -74.93
  -0.00050936   0.00000000   0.00000000          -74.93        0.00        0.00
   0.00000000  -0.00050936   0.00000000            0.00      -74.93        0.00
   0.00000000   0.00000000  -0.00050936            0.00        0.00      -74.93

     Energy error            =      1.3E-02 Ry
     Gradient error          =      0.0E+00 Ry/Bohr
     Cell gradient error     =      7.5E+01 kbar

     number of scf cycles    =   2
     number of bfgs steps    =   1

     enthalpy           old  =    -653.7666516815 Ry
     enthalpy           new  =    -653.7800479688 Ry

     CASE: enthalpy          _new < enthalpy          _old

     new trust radius        =       0.0481508398 bohr
ibrav =      1
 celldm(1) =      5.13714282
Input lattice vectors:
     0.94950236     0.00000000     0.00000000
     0.00000000     0.94950236     0.00000000
     0.00000000     0.00000000     0.94950236
New lattice vectors in INITIAL alat:
     0.94950236     0.00000000     0.00000000
     0.00000000     0.94950236     0.00000000
     0.00000000     0.00000000     0.94950236
New lattice vectors in NEW alat (for information only):
     1.00000000     0.00000000     0.00000000
     0.00000000     1.00000000     0.00000000
     0.00000000     0.00000000     1.00000000
Discrepancy in bohr =     0.000000    0.000000    0.000000
     new conv_thr            =            1.0E-11 Ry

     new unit-cell volume =    135.57041 a.u.^3 (    20.08946 Ang^3 )
     density =      9.23198 g/cm^3

CELL_PARAMETERS (alat=  5.41035287)
   0.949502361   0.000000000   0.000000000
   0.000000000   0.949502361   0.000000000
   0.000000000   0.000000000   0.949502361

ATOMIC_POSITIONS (crystal)
Fe1              0.0000000000        0.0000000000        0.0000000000
Fe2              0.5000000000        0.5000000000        0.5000000000



     Writing config-only to output data dir ./temp/fe-afm.save/ :
     XML data file
     NEW-OLD atomic charge density approx. for the potential
     Generating pointlists ...
     new r_m :   0.3392 (alat units)  1.8352 (a.u.) for type    1
     new r_m :   0.3392 (alat units)  1.8352 (a.u.) for type    2

     total cpu time spent up to now is      214.5 secs

     Self-consistent Calculation

     iteration #  1     ecut=   120.00 Ry     beta= 0.70
     Davidson diagonalization with overlap
     ethr =  1.00E-06,  avg # of iterations =  5.9

     total cpu time spent up to now is      224.9 secs

     total energy              =    -653.77878097 Ry
     estimated scf accuracy    <       0.00299603 Ry

     total magnetization       =    -0.00 Bohr mag/cell
     absolute magnetization    =     1.87 Bohr mag/cell

     iteration #  2     ecut=   120.00 Ry     beta= 0.70
     Davidson diagonalization with overlap
     ethr =  9.36E-06,  avg # of iterations =  3.2

     total cpu time spent up to now is      232.2 secs

     total energy              =    -653.77934221 Ry
     estimated scf accuracy    <       0.01032476 Ry

     total magnetization       =    -0.00 Bohr mag/cell
     absolute magnetization    =     1.83 Bohr mag/cell

     iteration #  3     ecut=   120.00 Ry     beta= 0.70
     Davidson diagonalization with overlap
     ethr =  9.36E-06,  avg # of iterations =  3.1

     total cpu time spent up to now is      238.0 secs

     total energy              =    -653.78036109 Ry
     estimated scf accuracy    <       0.00040054 Ry

     total magnetization       =    -0.00 Bohr mag/cell
     absolute magnetization    =     1.78 Bohr mag/cell

     iteration #  4     ecut=   120.00 Ry     beta= 0.70
     Davidson diagonalization with overlap
     ethr =  1.25E-06,  avg # of iterations =  3.2

     total cpu time spent up to now is      243.9 secs

     total energy              =    -653.78103265 Ry
     estimated scf accuracy    <       0.00114184 Ry

     total magnetization       =    -0.00 Bohr mag/cell
     absolute magnetization    =     1.60 Bohr mag/cell

     iteration #  5     ecut=   120.00 Ry     beta= 0.70
     Davidson diagonalization with overlap
     ethr =  1.25E-06,  avg # of iterations =  1.5

     total cpu time spent up to now is      248.4 secs

     total energy              =    -653.78055359 Ry
     estimated scf accuracy    <       0.00181604 Ry

     total magnetization       =     0.00 Bohr mag/cell
     absolute magnetization    =     1.58 Bohr mag/cell

     iteration #  6     ecut=   120.00 Ry     beta= 0.70
     Davidson diagonalization with overlap
     ethr =  1.25E-06,  avg # of iterations =  3.5

     total cpu time spent up to now is      254.6 secs

     total energy              =    -653.78085018 Ry
     estimated scf accuracy    <       0.00008300 Ry

     total magnetization       =     0.00 Bohr mag/cell
     absolute magnetization    =     1.26 Bohr mag/cell

     iteration #  7     ecut=   120.00 Ry     beta= 0.70
     Davidson diagonalization with overlap
     ethr =  2.59E-07,  avg # of iterations =  3.9

     total cpu time spent up to now is      261.0 secs

     total energy              =    -653.78075128 Ry
     estimated scf accuracy    <       0.00020115 Ry

     total magnetization       =     0.00 Bohr mag/cell
     absolute magnetization    =     1.02 Bohr mag/cell

     iteration #  8     ecut=   120.00 Ry     beta= 0.70
     Davidson diagonalization with overlap
     ethr =  2.59E-07,  avg # of iterations =  3.8

     total cpu time spent up to now is      267.6 secs

     total energy              =    -653.78092129 Ry
     estimated scf accuracy    <       0.00000433 Ry

     total magnetization       =     0.00 Bohr mag/cell
     absolute magnetization    =     0.83 Bohr mag/cell

     iteration #  9     ecut=   120.00 Ry     beta= 0.70
     Davidson diagonalization with overlap
     ethr =  1.35E-08,  avg # of iterations =  5.2

     total cpu time spent up to now is      275.5 secs

     total energy              =    -653.78111242 Ry
     estimated scf accuracy    <       0.00001132 Ry

     total magnetization       =     0.00 Bohr mag/cell
     absolute magnetization    =     0.67 Bohr mag/cell

     iteration # 10     ecut=   120.00 Ry     beta= 0.70
     Davidson diagonalization with overlap
     ethr =  1.35E-08,  avg # of iterations =  5.1

     total cpu time spent up to now is      283.1 secs

     total energy              =    -653.78112636 Ry
     estimated scf accuracy    <       0.00000169 Ry

     total magnetization       =     0.00 Bohr mag/cell
     absolute magnetization    =     0.55 Bohr mag/cell

     iteration # 11     ecut=   120.00 Ry     beta= 0.70
     Davidson diagonalization with overlap
     ethr =  5.27E-09,  avg # of iterations =  5.2

     total cpu time spent up to now is      291.2 secs

     total energy              =    -653.78125876 Ry
     estimated scf accuracy    <       0.00000076 Ry

     total magnetization       =     0.00 Bohr mag/cell
     absolute magnetization    =     0.44 Bohr mag/cell

     iteration # 12     ecut=   120.00 Ry     beta= 0.70
     Davidson diagonalization with overlap
     ethr =  2.38E-09,  avg # of iterations =  4.6

     total cpu time spent up to now is      299.0 secs

     total energy              =    -653.78126494 Ry
     estimated scf accuracy    <       0.00000083 Ry

     total magnetization       =     0.00 Bohr mag/cell
     absolute magnetization    =     0.47 Bohr mag/cell

     iteration # 13     ecut=   120.00 Ry     beta= 0.70
     Davidson diagonalization with overlap
     ethr =  2.38E-09,  avg # of iterations =  3.9

     total cpu time spent up to now is      306.3 secs

     total energy              =    -653.78127272 Ry
     estimated scf accuracy    <       0.00000046 Ry

     total magnetization       =     0.00 Bohr mag/cell
     absolute magnetization    =     0.45 Bohr mag/cell

     iteration # 14     ecut=   120.00 Ry     beta= 0.70
     Davidson diagonalization with overlap
     ethr =  1.45E-09,  avg # of iterations =  3.1

     total cpu time spent up to now is      312.1 secs

     total energy              =    -653.78030094 Ry
     estimated scf accuracy    <       0.00000045 Ry

     total magnetization       =     0.00 Bohr mag/cell
     absolute magnetization    =     0.44 Bohr mag/cell

     iteration # 15     ecut=   120.00 Ry     beta= 0.70
     Davidson diagonalization with overlap
     ethr =  1.42E-09,  avg # of iterations =  7.5

     total cpu time spent up to now is      324.0 secs

     total energy              =    -653.78092108 Ry
     estimated scf accuracy    <       0.00000075 Ry

     total magnetization       =     0.00 Bohr mag/cell
     absolute magnetization    =     0.15 Bohr mag/cell

     iteration # 16     ecut=   120.00 Ry     beta= 0.70
     Davidson diagonalization with overlap
     ethr =  1.42E-09,  avg # of iterations =  6.7

     total cpu time spent up to now is      334.7 secs

     total energy              =    -653.78129839 Ry
     estimated scf accuracy    <       0.00000242 Ry

     total magnetization       =     0.00 Bohr mag/cell
     absolute magnetization    =     0.03 Bohr mag/cell

     iteration # 17     ecut=   120.00 Ry     beta= 0.70
     Davidson diagonalization with overlap
     ethr =  1.42E-09,  avg # of iterations =  1.0

     total cpu time spent up to now is      339.3 secs

     total energy              =    -653.78104799 Ry
     estimated scf accuracy    <       0.00000238 Ry

     total magnetization       =     0.00 Bohr mag/cell
     absolute magnetization    =     0.03 Bohr mag/cell

     iteration # 18     ecut=   120.00 Ry     beta= 0.70
     Davidson diagonalization with overlap
     ethr =  1.42E-09,  avg # of iterations =  6.6

     total cpu time spent up to now is      349.8 secs

     total energy              =    -653.78092152 Ry
     estimated scf accuracy    <       0.00000498 Ry

     total magnetization       =     0.00 Bohr mag/cell
     absolute magnetization    =     0.17 Bohr mag/cell

     iteration # 19     ecut=   120.00 Ry     beta= 0.70
     Davidson diagonalization with overlap
     ethr =  1.42E-09,  avg # of iterations =  6.7

     total cpu time spent up to now is      360.6 secs

     total energy              =    -653.78125723 Ry
     estimated scf accuracy    <       0.00000786 Ry

     total magnetization       =     0.00 Bohr mag/cell
     absolute magnetization    =     0.01 Bohr mag/cell

     iteration # 20     ecut=   120.00 Ry     beta= 0.70
     Davidson diagonalization with overlap
     ethr =  1.42E-09,  avg # of iterations =  5.3

     total cpu time spent up to now is      369.3 secs

     total energy              =    -653.78128245 Ry
     estimated scf accuracy    <       0.00000202 Ry

     total magnetization       =     0.00 Bohr mag/cell
     absolute magnetization    =     0.05 Bohr mag/cell

     iteration # 21     ecut=   120.00 Ry     beta= 0.70
     Davidson diagonalization with overlap
     ethr =  1.42E-09,  avg # of iterations =  4.9

     total cpu time spent up to now is      377.4 secs

     total energy              =    -653.78128924 Ry
     estimated scf accuracy    <          7.6E-09 Ry

     total magnetization       =     0.00 Bohr mag/cell
     absolute magnetization    =     0.02 Bohr mag/cell

     iteration # 22     ecut=   120.00 Ry     beta= 0.70
     Davidson diagonalization with overlap
     ethr =  2.39E-11,  avg # of iterations =  7.0

     total cpu time spent up to now is      388.8 secs

     total energy              =    -653.78129672 Ry
     estimated scf accuracy    <       0.00000017 Ry

     total magnetization       =    -0.00 Bohr mag/cell
     absolute magnetization    =     0.01 Bohr mag/cell

     iteration # 23     ecut=   120.00 Ry     beta= 0.70
     Davidson diagonalization with overlap
     ethr =  2.39E-11,  avg # of iterations =  6.0

     total cpu time spent up to now is      398.6 secs

     total energy              =    -653.78129806 Ry
     estimated scf accuracy    <          2.3E-09 Ry

     total magnetization       =    -0.00 Bohr mag/cell
     absolute magnetization    =     0.00 Bohr mag/cell

     iteration # 24     ecut=   120.00 Ry     beta= 0.70
     Davidson diagonalization with overlap
     ethr =  7.20E-12,  avg # of iterations =  4.1

     total cpu time spent up to now is      406.2 secs

     total energy              =    -653.78129807 Ry
     estimated scf accuracy    <          1.7E-11 Ry

     total magnetization       =    -0.00 Bohr mag/cell
     absolute magnetization    =     0.00 Bohr mag/cell

     iteration # 25     ecut=   120.00 Ry     beta= 0.70
     Davidson diagonalization with overlap
     ethr =  1.00E-13,  avg # of iterations =  6.0

     total cpu time spent up to now is      416.0 secs

     total energy              =    -653.78129804 Ry
     estimated scf accuracy    <          7.8E-11 Ry

     total magnetization       =    -0.00 Bohr mag/cell
     absolute magnetization    =     0.00 Bohr mag/cell

     iteration # 26     ecut=   120.00 Ry     beta= 0.70
     Davidson diagonalization with overlap
     ethr =  1.00E-13,  avg # of iterations =  6.9

     Magnetic moment per site  (integrated on atomic sphere of radius R)
     atom   1 (R=0.339)  charge= 14.2850  magn=  0.0001
     atom   2 (R=0.339)  charge= 14.2850  magn= -0.0001

     total cpu time spent up to now is      427.0 secs

     End of self-consistent calculation

     Number of k-points >= 100: set verbosity='high' to print the bands.

     the Fermi energy is    21.1737 ev

!    total energy              =    -653.78129808 Ry
     total all-electron energy =     -5086.432717 Ry
     estimated scf accuracy    <          9.8E-12 Ry
     smearing contrib. (-TS)   =      -0.01651418 Ry
     internal energy E=F+TS    =    -653.76478390 Ry

     The total energy is F=E-TS. E is the sum of the following terms:
     one-electron contribution =    -195.90130531 Ry
     hartree contribution      =     121.11596403 Ry
     xc contribution           =     -54.81299282 Ry
     ewald contribution        =    -362.70892033 Ry
     one-center paw contrib.   =    -161.45752947 Ry

     total magnetization       =    -0.00 Bohr mag/cell
     absolute magnetization    =     0.00 Bohr mag/cell

     convergence has been achieved in  26 iterations

     Forces acting on atoms (cartesian axes, Ry/au):

     atom    1 type  1   force =     0.00000000    0.00000000    0.00000000
     atom    2 type  2   force =     0.00000000    0.00000000    0.00000000

     Total force =     0.000000     Total SCF correction =     0.000000


     Computing stress (Cartesian axis) and pressure

          total   stress  (Ry/bohr**3)                   (kbar)     P=       33.50
   0.00022771   0.00000000   0.00000000           33.50        0.00        0.00
   0.00000000   0.00022771   0.00000000            0.00       33.50        0.00
   0.00000000   0.00000000   0.00022771            0.00        0.00       33.50

     Energy error            =      1.3E-03 Ry
     Gradient error          =      0.0E+00 Ry/Bohr
     Cell gradient error     =      3.3E+01 kbar

     number of scf cycles    =   3
     number of bfgs steps    =   2

     enthalpy           old  =    -653.7800479688 Ry
     enthalpy           new  =    -653.7812980779 Ry

     CASE: enthalpy          _new < enthalpy          _old

     new trust radius        =       0.0143167708 bohr
ibrav =      1
 celldm(1) =      5.16872588
Input lattice vectors:
     0.95533988     0.00000000     0.00000000
     0.00000000     0.95533988     0.00000000
     0.00000000     0.00000000     0.95533988
New lattice vectors in INITIAL alat:
     0.95533988     0.00000000     0.00000000
     0.00000000     0.95533988     0.00000000
     0.00000000     0.00000000     0.95533988
New lattice vectors in NEW alat (for information only):
     1.00000000     0.00000000     0.00000000
     0.00000000     1.00000000     0.00000000
     0.00000000     0.00000000     1.00000000
Discrepancy in bohr =     0.000000    0.000000    0.000000
     new conv_thr            =            1.0E-11 Ry

     new unit-cell volume =    138.08627 a.u.^3 (    20.46227 Ang^3 )
     density =      9.06378 g/cm^3

CELL_PARAMETERS (alat=  5.41035287)
   0.955339885   0.000000000   0.000000000
   0.000000000   0.955339885   0.000000000
   0.000000000   0.000000000   0.955339885

ATOMIC_POSITIONS (crystal)
Fe1              0.0000000000        0.0000000000        0.0000000000
Fe2              0.5000000000        0.5000000000        0.5000000000



     Writing config-only to output data dir ./temp/fe-afm.save/ :
     XML data file
     NEW-OLD atomic charge density approx. for the potential
     Generating pointlists ...

     total cpu time spent up to now is      431.9 secs

     Self-consistent Calculation

     iteration #  1     ecut=   120.00 Ry     beta= 0.70
     Davidson diagonalization with overlap
     ethr =  1.00E-06,  avg # of iterations =  4.3

     total cpu time spent up to now is      440.9 secs

     total energy              =    -653.78131345 Ry
     estimated scf accuracy    <       0.00013943 Ry

     total magnetization       =    -0.00 Bohr mag/cell
     absolute magnetization    =     0.00 Bohr mag/cell

     iteration #  2     ecut=   120.00 Ry     beta= 0.70
     Davidson diagonalization with overlap
     ethr =  4.36E-07,  avg # of iterations =  3.3

     total cpu time spent up to now is      448.6 secs

     total energy              =    -653.78134130 Ry
     estimated scf accuracy    <       0.00054803 Ry

     total magnetization       =    -0.00 Bohr mag/cell
     absolute magnetization    =     0.00 Bohr mag/cell

     iteration #  3     ecut=   120.00 Ry     beta= 0.70
     Davidson diagonalization with overlap
     ethr =  4.36E-07,  avg # of iterations =  3.2

     total cpu time spent up to now is      455.2 secs

     total energy              =    -653.78139642 Ry
     estimated scf accuracy    <       0.00001038 Ry

     total magnetization       =    -0.00 Bohr mag/cell
     absolute magnetization    =     0.00 Bohr mag/cell

     iteration #  4     ecut=   120.00 Ry     beta= 0.70
     Davidson diagonalization with overlap
     ethr =  3.24E-08,  avg # of iterations =  2.0

     total cpu time spent up to now is      460.8 secs

     total energy              =    -653.78139039 Ry
     estimated scf accuracy    <       0.00006114 Ry

     total magnetization       =    -0.00 Bohr mag/cell
     absolute magnetization    =     0.00 Bohr mag/cell

     iteration #  5     ecut=   120.00 Ry     beta= 0.70
     Davidson diagonalization with overlap
     ethr =  3.24E-08,  avg # of iterations =  1.3

     total cpu time spent up to now is      465.4 secs

     total energy              =    -653.78139195 Ry
     estimated scf accuracy    <       0.00000015 Ry

     total magnetization       =    -0.00 Bohr mag/cell
     absolute magnetization    =     0.00 Bohr mag/cell

     iteration #  6     ecut=   120.00 Ry     beta= 0.70
     Davidson diagonalization with overlap
     ethr =  4.64E-10,  avg # of iterations =  3.3

     total cpu time spent up to now is      472.4 secs

     total energy              =    -653.78139103 Ry
     estimated scf accuracy    <       0.00000072 Ry

     total magnetization       =    -0.00 Bohr mag/cell
     absolute magnetization    =     0.00 Bohr mag/cell

     iteration #  7     ecut=   120.00 Ry     beta= 0.70
     Davidson diagonalization with overlap
     ethr =  4.64E-10,  avg # of iterations =  3.0

     total cpu time spent up to now is      478.7 secs

     total energy              =    -653.78139112 Ry
     estimated scf accuracy    <       0.00000003 Ry

     total magnetization       =    -0.00 Bohr mag/cell
     absolute magnetization    =     0.00 Bohr mag/cell

     iteration #  8     ecut=   120.00 Ry     beta= 0.70
     Davidson diagonalization with overlap
     ethr =  9.00E-11,  avg # of iterations =  2.0

     total cpu time spent up to now is      484.8 secs

     total energy              =    -653.78139113 Ry
     estimated scf accuracy    <          3.7E-09 Ry

     total magnetization       =    -0.00 Bohr mag/cell
     absolute magnetization    =     0.00 Bohr mag/cell

     iteration #  9     ecut=   120.00 Ry     beta= 0.70
     Davidson diagonalization with overlap
     ethr =  1.16E-11,  avg # of iterations =  1.6

     total cpu time spent up to now is      489.6 secs

     total energy              =    -653.78139112 Ry
     estimated scf accuracy    <       0.00000001 Ry

     total magnetization       =    -0.00 Bohr mag/cell
     absolute magnetization    =     0.00 Bohr mag/cell

     iteration # 10     ecut=   120.00 Ry     beta= 0.70
     Davidson diagonalization with overlap
     ethr =  1.16E-11,  avg # of iterations =  2.3

     total cpu time spent up to now is      496.1 secs

     total energy              =    -653.78139112 Ry
     estimated scf accuracy    <          2.4E-09 Ry

     total magnetization       =    -0.00 Bohr mag/cell
     absolute magnetization    =     0.00 Bohr mag/cell

     iteration # 11     ecut=   120.00 Ry     beta= 0.70
     Davidson diagonalization with overlap
     ethr =  7.48E-12,  avg # of iterations =  2.0

     total cpu time spent up to now is      501.5 secs

     total energy              =    -653.78139112 Ry
     estimated scf accuracy    <          1.4E-09 Ry

     total magnetization       =    -0.00 Bohr mag/cell
     absolute magnetization    =     0.00 Bohr mag/cell

     iteration # 12     ecut=   120.00 Ry     beta= 0.70
     Davidson diagonalization with overlap
     ethr =  4.41E-12,  avg # of iterations =  2.0

     Magnetic moment per site  (integrated on atomic sphere of radius R)
     atom   1 (R=0.339)  charge= 14.2615  magn=  0.0001
     atom   2 (R=0.339)  charge= 14.2615  magn= -0.0001

     total cpu time spent up to now is      507.1 secs

     End of self-consistent calculation

     Number of k-points >= 100: set verbosity='high' to print the bands.

     the Fermi energy is    20.7089 ev

!    total energy              =    -653.78139112 Ry
     total all-electron energy =     -5086.432810 Ry
     estimated scf accuracy    <          2.9E-12 Ry
     smearing contrib. (-TS)   =      -0.01696048 Ry
     internal energy E=F+TS    =    -653.76443064 Ry

     The total energy is F=E-TS. E is the sum of the following terms:
     one-electron contribution =    -199.36316219 Ry
     hartree contribution      =     122.32599402 Ry
     xc contribution           =     -54.77695310 Ry
     ewald contribution        =    -360.49261806 Ry
     one-center paw contrib.   =    -161.45769130 Ry

     total magnetization       =     0.00 Bohr mag/cell
     absolute magnetization    =     0.00 Bohr mag/cell

     convergence has been achieved in  12 iterations

     Forces acting on atoms (cartesian axes, Ry/au):

     atom    1 type  1   force =     0.00000000    0.00000000    0.00000000
     atom    2 type  2   force =     0.00000000    0.00000000    0.00000000

     Total force =     0.000000     Total SCF correction =     0.000000


     Computing stress (Cartesian axis) and pressure

          total   stress  (Ry/bohr**3)                   (kbar)     P=      -21.60
  -0.00014682   0.00000000   0.00000000          -21.60        0.00        0.00
   0.00000000  -0.00014682   0.00000000            0.00      -21.60        0.00
   0.00000000   0.00000000  -0.00014682            0.00        0.00      -21.60

     Energy error            =      9.3E-05 Ry
     Gradient error          =      0.0E+00 Ry/Bohr
     Cell gradient error     =      2.2E+01 kbar

     number of scf cycles    =   4
     number of bfgs steps    =   3

     enthalpy           old  =    -653.7812980779 Ry
     enthalpy           new  =    -653.7813911209 Ry

     CASE: enthalpy          _new < enthalpy          _old

     new trust radius        =       0.0056715850 bohr
ibrav =      1
 celldm(1) =      5.15625255
Input lattice vectors:
     0.95303443     0.00000000     0.00000000
     0.00000000     0.95303443     0.00000000
     0.00000000     0.00000000     0.95303443
New lattice vectors in INITIAL alat:
     0.95303443     0.00000000     0.00000000
     0.00000000     0.95303443     0.00000000
     0.00000000     0.00000000     0.95303443
New lattice vectors in NEW alat (for information only):
     1.00000000     0.00000000     0.00000000
     0.00000000     1.00000000     0.00000000
     0.00000000     0.00000000     1.00000000
Discrepancy in bohr =     0.000000    0.000000    0.000000
     new conv_thr            =            1.0E-11 Ry

     new unit-cell volume =    137.08898 a.u.^3 (    20.31449 Ang^3 )
     density =      9.12972 g/cm^3

CELL_PARAMETERS (alat=  5.41035287)
   0.953034427   0.000000000   0.000000000
   0.000000000   0.953034427   0.000000000
   0.000000000   0.000000000   0.953034427

ATOMIC_POSITIONS (crystal)
Fe1              0.0000000000        0.0000000000        0.0000000000
Fe2              0.5000000000        0.5000000000        0.5000000000



     Writing config-only to output data dir ./temp/fe-afm.save/ :
     XML data file
     NEW-OLD atomic charge density approx. for the potential
     Generating pointlists ...

     total cpu time spent up to now is      512.1 secs

     Self-consistent Calculation

     iteration #  1     ecut=   120.00 Ry     beta= 0.70
     Davidson diagonalization with overlap
     ethr =  1.00E-06,  avg # of iterations =  3.0

     Threshold (ethr) on eigenvalues was too large:
     Diagonalizing with lowered threshold

     Davidson diagonalization with overlap
     ethr =  6.62E-08,  avg # of iterations =  2.2

     total cpu time spent up to now is      524.8 secs

     total energy              =    -653.78145336 Ry
     estimated scf accuracy    <       0.00002558 Ry

     total magnetization       =     0.00 Bohr mag/cell
     absolute magnetization    =     0.00 Bohr mag/cell

     iteration #  2     ecut=   120.00 Ry     beta= 0.70
     Davidson diagonalization with overlap
     ethr =  8.00E-08,  avg # of iterations =  3.2

     total cpu time spent up to now is      532.2 secs

     total energy              =    -653.78145834 Ry
     estimated scf accuracy    <       0.00010224 Ry

     total magnetization       =     0.00 Bohr mag/cell
     absolute magnetization    =     0.00 Bohr mag/cell

     iteration #  3     ecut=   120.00 Ry     beta= 0.70
     Davidson diagonalization with overlap
     ethr =  8.00E-08,  avg # of iterations =  3.2

     total cpu time spent up to now is      538.7 secs

     total energy              =    -653.78147063 Ry
     estimated scf accuracy    <       0.00000556 Ry

     total magnetization       =     0.00 Bohr mag/cell
     absolute magnetization    =     0.00 Bohr mag/cell

     iteration #  4     ecut=   120.00 Ry     beta= 0.70
     Davidson diagonalization with overlap
     ethr =  1.74E-08,  avg # of iterations =  1.2

     total cpu time spent up to now is      543.3 secs

     total energy              =    -653.78146706 Ry
     estimated scf accuracy    <       0.00000286 Ry

     total magnetization       =     0.00 Bohr mag/cell
     absolute magnetization    =     0.00 Bohr mag/cell

     iteration #  5     ecut=   120.00 Ry     beta= 0.70
     Davidson diagonalization with overlap
     ethr =  8.93E-09,  avg # of iterations =  2.0

     total cpu time spent up to now is      548.5 secs

     total energy              =    -653.78146647 Ry
     estimated scf accuracy    <       0.00000017 Ry

     total magnetization       =     0.00 Bohr mag/cell
     absolute magnetization    =     0.00 Bohr mag/cell

     iteration #  6     ecut=   120.00 Ry     beta= 0.70
     Davidson diagonalization with overlap
     ethr =  5.27E-10,  avg # of iterations =  2.5

     total cpu time spent up to now is      554.2 secs

     total energy              =    -653.78146653 Ry
     estimated scf accuracy    <       0.00000002 Ry

     total magnetization       =     0.00 Bohr mag/cell
     absolute magnetization    =     0.00 Bohr mag/cell

     iteration #  7     ecut=   120.00 Ry     beta= 0.70
     Davidson diagonalization with overlap
     ethr =  4.71E-11,  avg # of iterations =  3.0

     total cpu time spent up to now is      560.4 secs

     total energy              =    -653.78146652 Ry
     estimated scf accuracy    <          5.7E-09 Ry

     total magnetization       =     0.00 Bohr mag/cell
     absolute magnetization    =     0.00 Bohr mag/cell

     iteration #  8     ecut=   120.00 Ry     beta= 0.70
     Davidson diagonalization with overlap
     ethr =  1.80E-11,  avg # of iterations =  2.0

     total cpu time spent up to now is      565.8 secs

     total energy              =    -653.78146652 Ry
     estimated scf accuracy    <          3.0E-10 Ry

     total magnetization       =     0.00 Bohr mag/cell
     absolute magnetization    =     0.00 Bohr mag/cell

     iteration #  9     ecut=   120.00 Ry     beta= 0.70
     Davidson diagonalization with overlap
     ethr =  9.34E-13,  avg # of iterations =  2.0

     total cpu time spent up to now is      570.9 secs

     total energy              =    -653.78146652 Ry
     estimated scf accuracy    <          3.2E-10 Ry

     total magnetization       =     0.00 Bohr mag/cell
     absolute magnetization    =     0.00 Bohr mag/cell

     iteration # 10     ecut=   120.00 Ry     beta= 0.70
     Davidson diagonalization with overlap
     ethr =  9.34E-13,  avg # of iterations =  1.0

     total cpu time spent up to now is      575.4 secs

     total energy              =    -653.78146652 Ry
     estimated scf accuracy    <          6.2E-10 Ry

     total magnetization       =     0.00 Bohr mag/cell
     absolute magnetization    =     0.00 Bohr mag/cell

     iteration # 11     ecut=   120.00 Ry     beta= 0.70
     Davidson diagonalization with overlap
     ethr =  9.34E-13,  avg # of iterations =  2.9

     total cpu time spent up to now is      581.3 secs

     total energy              =    -653.78146652 Ry
     estimated scf accuracy    <          1.7E-11 Ry

     total magnetization       =     0.00 Bohr mag/cell
     absolute magnetization    =     0.00 Bohr mag/cell

     iteration # 12     ecut=   120.00 Ry     beta= 0.70
     Davidson diagonalization with overlap
     ethr =  1.00E-13,  avg # of iterations =  2.0

     Magnetic moment per site  (integrated on atomic sphere of radius R)
     atom   1 (R=0.339)  charge= 14.2707  magn=  0.0001
     atom   2 (R=0.339)  charge= 14.2707  magn= -0.0001

     total cpu time spent up to now is      587.5 secs

     End of self-consistent calculation

     Number of k-points >= 100: set verbosity='high' to print the bands.

     the Fermi energy is    20.8912 ev

!    total energy              =    -653.78146652 Ry
     total all-electron energy =     -5086.432885 Ry
     estimated scf accuracy    <          7.9E-13 Ry
     smearing contrib. (-TS)   =      -0.01678371 Ry
     internal energy E=F+TS    =    -653.76468281 Ry

     The total energy is F=E-TS. E is the sum of the following terms:
     one-electron contribution =    -197.99995552 Ry
     hartree contribution      =     121.84860855 Ry
     xc contribution           =     -54.79102393 Ry
     ewald contribution        =    -361.36467510 Ry
     one-center paw contrib.   =    -161.45763681 Ry

     total magnetization       =     0.00 Bohr mag/cell
     absolute magnetization    =     0.00 Bohr mag/cell

     convergence has been achieved in  12 iterations

     Forces acting on atoms (cartesian axes, Ry/au):

     atom    1 type  1   force =     0.00000000    0.00000000    0.00000000
     atom    2 type  2   force =     0.00000000    0.00000000    0.00000000

     Total force =     0.000000     Total SCF correction =     0.000000


     Computing stress (Cartesian axis) and pressure

          total   stress  (Ry/bohr**3)                   (kbar)     P=       -0.45
  -0.00000303   0.00000000   0.00000000           -0.45        0.00        0.00
   0.00000000  -0.00000303   0.00000000            0.00       -0.45        0.00
   0.00000000   0.00000000  -0.00000303            0.00        0.00       -0.45

     Energy error            =      7.5E-05 Ry
     Gradient error          =      0.0E+00 Ry/Bohr
     Cell gradient error     =      4.5E-01 kbar

     number of scf cycles    =   5
     number of bfgs steps    =   4

     enthalpy           old  =    -653.7813911209 Ry
     enthalpy           new  =    -653.7814665205 Ry

     CASE: enthalpy          _new < enthalpy          _old

     new trust radius        =       0.0001189472 bohr
ibrav =      1
 celldm(1) =      5.15599063
Input lattice vectors:
     0.95298602     0.00000000     0.00000000
     0.00000000     0.95298602     0.00000000
     0.00000000     0.00000000     0.95298602
New lattice vectors in INITIAL alat:
     0.95298602     0.00000000     0.00000000
     0.00000000     0.95298602     0.00000000
     0.00000000     0.00000000     0.95298602
New lattice vectors in NEW alat (for information only):
     1.00000000     0.00000000     0.00000000
     0.00000000     1.00000000     0.00000000
     0.00000000     0.00000000     1.00000000
Discrepancy in bohr =     0.000000    0.000000    0.000000
     new conv_thr            =            1.0E-11 Ry

     new unit-cell volume =    137.06809 a.u.^3 (    20.31140 Ang^3 )
     density =      9.13111 g/cm^3

CELL_PARAMETERS (alat=  5.41035287)
   0.952986018   0.000000000   0.000000000
   0.000000000   0.952986018   0.000000000
   0.000000000   0.000000000   0.952986018

ATOMIC_POSITIONS (crystal)
Fe1              0.0000000000        0.0000000000        0.0000000000
Fe2              0.5000000000        0.5000000000        0.5000000000



     Writing config-only to output data dir ./temp/fe-afm.save/ :
     XML data file
     NEW-OLD atomic charge density approx. for the potential
     Generating pointlists ...

     total cpu time spent up to now is      592.6 secs

     Self-consistent Calculation

     iteration #  1     ecut=   120.00 Ry     beta= 0.70
     Davidson diagonalization with overlap
     ethr =  1.00E-06,  avg # of iterations =  2.0

     Threshold (ethr) on eigenvalues was too large:
     Diagonalizing with lowered threshold

     Davidson diagonalization with overlap
     ethr =  1.99E-11,  avg # of iterations =  3.2

     total cpu time spent up to now is      604.8 secs

     total energy              =    -653.78146655 Ry
     estimated scf accuracy    <       0.00000001 Ry

     total magnetization       =     0.00 Bohr mag/cell
     absolute magnetization    =     0.00 Bohr mag/cell

     iteration #  2     ecut=   120.00 Ry     beta= 0.70
     Davidson diagonalization with overlap
     ethr =  3.55E-11,  avg # of iterations =  3.2

     total cpu time spent up to now is      612.4 secs

     total energy              =    -653.78146655 Ry
     estimated scf accuracy    <       0.00000007 Ry

     total magnetization       =     0.00 Bohr mag/cell
     absolute magnetization    =     0.00 Bohr mag/cell

     iteration #  3     ecut=   120.00 Ry     beta= 0.70
     Davidson diagonalization with overlap
     ethr =  3.55E-11,  avg # of iterations =  3.6

     total cpu time spent up to now is      619.1 secs

     total energy              =    -653.78146655 Ry
     estimated scf accuracy    <       0.00000036 Ry

     total magnetization       =     0.00 Bohr mag/cell
     absolute magnetization    =     0.00 Bohr mag/cell

     iteration #  4     ecut=   120.00 Ry     beta= 0.70
     Davidson diagonalization with overlap
     ethr =  3.55E-11,  avg # of iterations =  2.7

     total cpu time spent up to now is      624.7 secs

     total energy              =    -653.78146656 Ry
     estimated scf accuracy    <          6.8E-10 Ry

     total magnetization       =     0.00 Bohr mag/cell
     absolute magnetization    =     0.00 Bohr mag/cell

     iteration #  5     ecut=   120.00 Ry     beta= 0.70
     Davidson diagonalization with overlap
     ethr =  2.13E-12,  avg # of iterations =  2.1

     total cpu time spent up to now is      630.4 secs

     total energy              =    -653.78146656 Ry
     estimated scf accuracy    <          1.1E-10 Ry

     total magnetization       =     0.00 Bohr mag/cell
     absolute magnetization    =     0.00 Bohr mag/cell

     iteration #  6     ecut=   120.00 Ry     beta= 0.70
     Davidson diagonalization with overlap
     ethr =  3.46E-13,  avg # of iterations =  2.0

     total cpu time spent up to now is      635.8 secs

     total energy              =    -653.78146656 Ry
     estimated scf accuracy    <          1.9E-11 Ry

     total magnetization       =     0.00 Bohr mag/cell
     absolute magnetization    =     0.00 Bohr mag/cell

     iteration #  7     ecut=   120.00 Ry     beta= 0.70
     Davidson diagonalization with overlap
     ethr =  1.00E-13,  avg # of iterations =  2.1

     Magnetic moment per site  (integrated on atomic sphere of radius R)
     atom   1 (R=0.339)  charge= 14.2709  magn=  0.0001
     atom   2 (R=0.339)  charge= 14.2709  magn= -0.0001

     total cpu time spent up to now is      641.4 secs

     End of self-consistent calculation

     Number of k-points >= 100: set verbosity='high' to print the bands.

     the Fermi energy is    20.8950 ev

!    total energy              =    -653.78146656 Ry
     total all-electron energy =     -5086.432885 Ry
     estimated scf accuracy    <          3.7E-12 Ry
     smearing contrib. (-TS)   =      -0.01678000 Ry
     internal energy E=F+TS    =    -653.76468655 Ry

     The total energy is F=E-TS. E is the sum of the following terms:
     one-electron contribution =    -197.97127145 Ry
     hartree contribution      =     121.83857295 Ry
     xc contribution           =     -54.79132100 Ry
     ewald contribution        =    -361.38303164 Ry
     one-center paw contrib.   =    -161.45763541 Ry

     total magnetization       =     0.00 Bohr mag/cell
     absolute magnetization    =     0.00 Bohr mag/cell

     convergence has been achieved in   7 iterations

     Forces acting on atoms (cartesian axes, Ry/au):

     atom    1 type  1   force =     0.00000000    0.00000000    0.00000000
     atom    2 type  2   force =     0.00000000    0.00000000    0.00000000

     Total force =     0.000000     Total SCF correction =     0.000000


     Computing stress (Cartesian axis) and pressure

          total   stress  (Ry/bohr**3)                   (kbar)     P=       -0.00
  -0.00000003   0.00000000   0.00000000           -0.00        0.00        0.00
   0.00000000  -0.00000003   0.00000000            0.00       -0.00        0.00
   0.00000000   0.00000000  -0.00000003            0.00        0.00       -0.00

     Energy error            =      3.5E-08 Ry
     Gradient error          =      0.0E+00 Ry/Bohr
     Cell gradient error     =      4.7E-03 kbar
ibrav =      1
 celldm(1) =      5.15599063
Input lattice vectors:
     0.95298602     0.00000000     0.00000000
     0.00000000     0.95298602     0.00000000
     0.00000000     0.00000000     0.95298602
New lattice vectors in INITIAL alat:
     0.95298602     0.00000000     0.00000000
     0.00000000     0.95298602     0.00000000
     0.00000000     0.00000000     0.95298602
New lattice vectors in NEW alat (for information only):
     1.00000000     0.00000000     0.00000000
     0.00000000     1.00000000     0.00000000
     0.00000000     0.00000000     1.00000000
Discrepancy in bohr =     0.000000    0.000000    0.000000

     bfgs converged in   6 scf cycles and   5 bfgs steps
     (criteria: energy <  1.0E-05 Ry, force <  1.0E-04 Ry/Bohr, cell <  5.0E-01 kbar)

     End of BFGS Geometry Optimization

     Final enthalpy           =    -653.7814665555 Ry

     File ./temp/fe-afm.bfgs deleted, as requested
Begin final coordinates
     new unit-cell volume =    137.06809 a.u.^3 (    20.31140 Ang^3 )
     density =      9.13111 g/cm^3

CELL_PARAMETERS (alat=  5.41035287)
   0.952986018   0.000000000   0.000000000
   0.000000000   0.952986018   0.000000000
   0.000000000   0.000000000   0.952986018

ATOMIC_POSITIONS (crystal)
Fe1              0.0000000000        0.0000000000        0.0000000000
Fe2              0.5000000000        0.5000000000        0.5000000000
End final coordinates



     Writing config-only to output data dir ./temp/fe-afm.save/ :
     XML data file

     Final scf calculation at the relaxed structure.
     The G-vectors are recalculated for the final unit cell
     Results may differ from those at the preceding step.

     Parallelization info
     --------------------
     sticks:   dense  smooth     PW     G-vecs:    dense   smooth      PW
     Min         337     167     48                11479     4049     644
     Max         338     168     49                11484     4052     649
     Sum        2025    1005    293                68891    24303    3887

     Using Slab Decomposition



     bravais-lattice index     =            1
     lattice parameter (alat)  =       5.4104  a.u.
     unit-cell volume          =     137.0681 (a.u.)^3
     number of atoms/cell      =            2
     number of atomic types    =            2
     number of electrons       =        32.00
     number of Kohn-Sham states=           20
     kinetic-energy cutoff     =     120.0000  Ry
     charge density cutoff     =     960.0000  Ry
     scf convergence threshold =      1.0E-11
     mixing beta               =       0.7000
     number of iterations used =            8  plain     mixing
     press convergence thresh. =      5.0E-01
     Exchange-correlation= SLA  PW   PSX  PSC
                           (   1   4  10   8   0   0   0)

     celldm(1)=   5.410353  celldm(2)=   0.000000  celldm(3)=   0.000000
     celldm(4)=   0.000000  celldm(5)=   0.000000  celldm(6)=   0.000000

     crystal axes: (cart. coord. in units of alat)
               a(1) = (   0.952986   0.000000   0.000000 )  
               a(2) = (   0.000000   0.952986   0.000000 )  
               a(3) = (   0.000000   0.000000   0.952986 )  

     reciprocal axes: (cart. coord. in units 2 pi/alat)
               b(1) = (  1.049333  0.000000  0.000000 )  
               b(2) = (  0.000000  1.049333  0.000000 )  
               b(3) = (  0.000000  0.000000  1.049333 )  


     PseudoPot. # 1 for Fe read from file:
     ./../../pseudos/Fe.pbesol-spn-kjpaw_psl.1.0.0.UPF
     MD5 check sum: e30d5f36a6f0cb983ee41abee56170da
     Pseudo is Projector augmented-wave + core cor, Zval = 16.0
     Generated using &quot;atomic&quot; code by A. Dal Corso  v.6.3
     Shape of augmentation charge: PSQ
     Using radial grid of 1191 points,  6 beta functions with: 
                l(1) =   0
                l(2) =   0
                l(3) =   1
                l(4) =   1
                l(5) =   2
                l(6) =   2
     Q(r) pseudized with 0 coefficients 


     PseudoPot. # 2 for Fe read from file:
     ./../../pseudos/Fe.pbesol-spn-kjpaw_psl.1.0.0.UPF
     MD5 check sum: e30d5f36a6f0cb983ee41abee56170da
     Pseudo is Projector augmented-wave + core cor, Zval = 16.0
     Generated using &quot;atomic&quot; code by A. Dal Corso  v.6.3
     Shape of augmentation charge: PSQ
     Using radial grid of 1191 points,  6 beta functions with: 
                l(1) =   0
                l(2) =   0
                l(3) =   1
                l(4) =   1
                l(5) =   2
                l(6) =   2
     Q(r) pseudized with 0 coefficients 


     atomic species   valence    mass     pseudopotential
     Fe1              16.00    55.84500     Fe( 1.00)
     Fe2              16.00    55.84500     Fe( 1.00)

     Starting magnetic structure 
     atomic species   magnetization
     Fe1             0.000
     Fe2            -0.000

     48 Sym. Ops., with inversion, found



   Cartesian axes

     site n.     atom                  positions (alat units)
         1        Fe1    tau(   1) = (   0.0000000   0.0000000   0.0000000  )
         2        Fe2    tau(   2) = (   0.4764930   0.4764930   0.4764930  )

     number of k points=    56  Gaussian smearing, width (Ry)=  0.0200
                       cart. coord. in units 2pi/alat
        k(    1) = (   0.0000000   0.0000000   0.0000000), wk =   0.0007513
        k(    2) = (   0.0000000   0.0000000   0.0953939), wk =   0.0045079
        k(    3) = (   0.0000000   0.0000000   0.1907879), wk =   0.0045079
        k(    4) = (   0.0000000   0.0000000   0.2861818), wk =   0.0045079
        k(    5) = (   0.0000000   0.0000000   0.3815758), wk =   0.0045079
        k(    6) = (   0.0000000   0.0000000   0.4769697), wk =   0.0045079
        k(    7) = (   0.0000000   0.0953939   0.0953939), wk =   0.0090158
        k(    8) = (   0.0000000   0.0953939   0.1907879), wk =   0.0180316
        k(    9) = (   0.0000000   0.0953939   0.2861818), wk =   0.0180316
        k(   10) = (   0.0000000   0.0953939   0.3815758), wk =   0.0180316
        k(   11) = (   0.0000000   0.0953939   0.4769697), wk =   0.0180316
        k(   12) = (   0.0000000   0.1907879   0.1907879), wk =   0.0090158
        k(   13) = (   0.0000000   0.1907879   0.2861818), wk =   0.0180316
        k(   14) = (   0.0000000   0.1907879   0.3815758), wk =   0.0180316
        k(   15) = (   0.0000000   0.1907879   0.4769697), wk =   0.0180316
        k(   16) = (   0.0000000   0.2861818   0.2861818), wk =   0.0090158
        k(   17) = (   0.0000000   0.2861818   0.3815758), wk =   0.0180316
        k(   18) = (   0.0000000   0.2861818   0.4769697), wk =   0.0180316
        k(   19) = (   0.0000000   0.3815758   0.3815758), wk =   0.0090158
        k(   20) = (   0.0000000   0.3815758   0.4769697), wk =   0.0180316
        k(   21) = (   0.0000000   0.4769697   0.4769697), wk =   0.0090158
        k(   22) = (   0.0953939   0.0953939   0.0953939), wk =   0.0060105
        k(   23) = (   0.0953939   0.0953939   0.1907879), wk =   0.0180316
        k(   24) = (   0.0953939   0.0953939   0.2861818), wk =   0.0180316
        k(   25) = (   0.0953939   0.0953939   0.3815758), wk =   0.0180316
        k(   26) = (   0.0953939   0.0953939   0.4769697), wk =   0.0180316
        k(   27) = (   0.0953939   0.1907879   0.1907879), wk =   0.0180316
        k(   28) = (   0.0953939   0.1907879   0.2861818), wk =   0.0360631
        k(   29) = (   0.0953939   0.1907879   0.3815758), wk =   0.0360631
        k(   30) = (   0.0953939   0.1907879   0.4769697), wk =   0.0360631
        k(   31) = (   0.0953939   0.2861818   0.2861818), wk =   0.0180316
        k(   32) = (   0.0953939   0.2861818   0.3815758), wk =   0.0360631
        k(   33) = (   0.0953939   0.2861818   0.4769697), wk =   0.0360631
        k(   34) = (   0.0953939   0.3815758   0.3815758), wk =   0.0180316
        k(   35) = (   0.0953939   0.3815758   0.4769697), wk =   0.0360631
        k(   36) = (   0.0953939   0.4769697   0.4769697), wk =   0.0180316
        k(   37) = (   0.1907879   0.1907879   0.1907879), wk =   0.0060105
        k(   38) = (   0.1907879   0.1907879   0.2861818), wk =   0.0180316
        k(   39) = (   0.1907879   0.1907879   0.3815758), wk =   0.0180316
        k(   40) = (   0.1907879   0.1907879   0.4769697), wk =   0.0180316
        k(   41) = (   0.1907879   0.2861818   0.2861818), wk =   0.0180316
        k(   42) = (   0.1907879   0.2861818   0.3815758), wk =   0.0360631
        k(   43) = (   0.1907879   0.2861818   0.4769697), wk =   0.0360631
        k(   44) = (   0.1907879   0.3815758   0.3815758), wk =   0.0180316
        k(   45) = (   0.1907879   0.3815758   0.4769697), wk =   0.0360631
        k(   46) = (   0.1907879   0.4769697   0.4769697), wk =   0.0180316
        k(   47) = (   0.2861818   0.2861818   0.2861818), wk =   0.0060105
        k(   48) = (   0.2861818   0.2861818   0.3815758), wk =   0.0180316
        k(   49) = (   0.2861818   0.2861818   0.4769697), wk =   0.0180316
        k(   50) = (   0.2861818   0.3815758   0.3815758), wk =   0.0180316
        k(   51) = (   0.2861818   0.3815758   0.4769697), wk =   0.0360631
        k(   52) = (   0.2861818   0.4769697   0.4769697), wk =   0.0180316
        k(   53) = (   0.3815758   0.3815758   0.3815758), wk =   0.0060105
        k(   54) = (   0.3815758   0.3815758   0.4769697), wk =   0.0180316
        k(   55) = (   0.3815758   0.4769697   0.4769697), wk =   0.0180316
        k(   56) = (   0.4769697   0.4769697   0.4769697), wk =   0.0060105

     Dense  grid:    68891 G-vectors     FFT dimensions: (  54,  54,  54)

     Smooth grid:    24303 G-vectors     FFT dimensions: (  36,  36,  36)

     Estimated max dynamical RAM per process >      74.75 MB

     Estimated total dynamical RAM >     448.52 MB
     Generating pointlists ...

     Initial potential from superposition of free atoms

     starting charge      31.9992, renormalised to      32.0000
     Starting wfcs are   20 randomized atomic wfcs
     Checking if some PAW data can be deallocated... 

     total cpu time spent up to now is      647.7 secs

     Self-consistent Calculation

     iteration #  1     ecut=   120.00 Ry     beta= 0.70
     Davidson diagonalization with overlap
     ethr =  1.00E-06,  avg # of iterations = 10.6

     total cpu time spent up to now is      661.8 secs

     total energy              =    -653.71824601 Ry
     estimated scf accuracy    <       0.11439873 Ry

     total magnetization       =     0.00 Bohr mag/cell
     absolute magnetization    =     0.01 Bohr mag/cell

     iteration #  2     ecut=   120.00 Ry     beta= 0.70
     Davidson diagonalization with overlap
     ethr =  3.57E-04,  avg # of iterations =  3.7

     total cpu time spent up to now is      668.5 secs

     total energy              =    -653.71104521 Ry
     estimated scf accuracy    <       0.36707138 Ry

     total magnetization       =     0.00 Bohr mag/cell
     absolute magnetization    =     0.01 Bohr mag/cell

     iteration #  3     ecut=   120.00 Ry     beta= 0.70
     Davidson diagonalization with overlap
     ethr =  3.57E-04,  avg # of iterations =  3.2

     total cpu time spent up to now is      673.9 secs

     total energy              =    -653.71856296 Ry
     estimated scf accuracy    <       1.68836820 Ry

     total magnetization       =     0.00 Bohr mag/cell
     absolute magnetization    =     0.01 Bohr mag/cell

     iteration #  4     ecut=   120.00 Ry     beta= 0.70
     Davidson diagonalization with overlap
     ethr =  3.57E-04,  avg # of iterations =  2.0

     total cpu time spent up to now is      678.3 secs

     total energy              =    -653.78013438 Ry
     estimated scf accuracy    <       0.00046066 Ry

     total magnetization       =     0.00 Bohr mag/cell
     absolute magnetization    =     0.01 Bohr mag/cell

     iteration #  5     ecut=   120.00 Ry     beta= 0.70
     Davidson diagonalization with overlap
     ethr =  1.44E-06,  avg # of iterations =  4.6

     total cpu time spent up to now is      684.8 secs

     total energy              =    -653.78072716 Ry
     estimated scf accuracy    <       0.00160196 Ry

     total magnetization       =     0.01 Bohr mag/cell
     absolute magnetization    =     0.01 Bohr mag/cell

     iteration #  6     ecut=   120.00 Ry     beta= 0.70
     Davidson diagonalization with overlap
     ethr =  1.44E-06,  avg # of iterations =  1.0

     total cpu time spent up to now is      688.6 secs

     total energy              =    -653.78074928 Ry
     estimated scf accuracy    <       0.00014250 Ry

     total magnetization       =     0.01 Bohr mag/cell
     absolute magnetization    =     0.01 Bohr mag/cell

     iteration #  7     ecut=   120.00 Ry     beta= 0.70
     Davidson diagonalization with overlap
     ethr =  4.45E-07,  avg # of iterations =  1.1

     total cpu time spent up to now is      692.4 secs

     total energy              =    -653.78075409 Ry
     estimated scf accuracy    <       0.00001125 Ry

     total magnetization       =     0.01 Bohr mag/cell
     absolute magnetization    =     0.02 Bohr mag/cell

     iteration #  8     ecut=   120.00 Ry     beta= 0.70
     Davidson diagonalization with overlap
     ethr =  3.51E-08,  avg # of iterations =  1.5

     total cpu time spent up to now is      696.5 secs

     total energy              =    -653.78074919 Ry
     estimated scf accuracy    <       0.00002512 Ry

     total magnetization       =     0.02 Bohr mag/cell
     absolute magnetization    =     0.02 Bohr mag/cell

     iteration #  9     ecut=   120.00 Ry     beta= 0.70
     Davidson diagonalization with overlap
     ethr =  3.51E-08,  avg # of iterations =  1.2

     total cpu time spent up to now is      700.4 secs

     total energy              =    -653.78075236 Ry
     estimated scf accuracy    <       0.00000019 Ry

     total magnetization       =    -0.00 Bohr mag/cell
     absolute magnetization    =     0.01 Bohr mag/cell

     iteration # 10     ecut=   120.00 Ry     beta= 0.70
     Davidson diagonalization with overlap
     ethr =  5.93E-10,  avg # of iterations =  3.7

     total cpu time spent up to now is      705.6 secs

     total energy              =    -653.78075242 Ry
     estimated scf accuracy    <       0.00000029 Ry

     total magnetization       =    -0.00 Bohr mag/cell
     absolute magnetization    =     0.01 Bohr mag/cell

     iteration # 11     ecut=   120.00 Ry     beta= 0.70
     Davidson diagonalization with overlap
     ethr =  5.93E-10,  avg # of iterations =  1.0

     total cpu time spent up to now is      709.4 secs

     total energy              =    -653.78075244 Ry
     estimated scf accuracy    <          2.4E-09 Ry

     total magnetization       =     0.00 Bohr mag/cell
     absolute magnetization    =     0.01 Bohr mag/cell

     iteration # 12     ecut=   120.00 Ry     beta= 0.70
     Davidson diagonalization with overlap
     ethr =  7.59E-12,  avg # of iterations =  2.6

     total cpu time spent up to now is      714.1 secs

     total energy              =    -653.78075244 Ry
     estimated scf accuracy    <          1.0E-09 Ry

     total magnetization       =     0.00 Bohr mag/cell
     absolute magnetization    =     0.01 Bohr mag/cell

     iteration # 13     ecut=   120.00 Ry     beta= 0.70
     Davidson diagonalization with overlap
     ethr =  3.24E-12,  avg # of iterations =  2.0

     total cpu time spent up to now is      718.6 secs

     total energy              =    -653.78075244 Ry
     estimated scf accuracy    <          2.8E-10 Ry

     total magnetization       =    -0.00 Bohr mag/cell
     absolute magnetization    =     0.01 Bohr mag/cell

     iteration # 14     ecut=   120.00 Ry     beta= 0.70
     Davidson diagonalization with overlap
     ethr =  8.65E-13,  avg # of iterations =  1.2

     total cpu time spent up to now is      722.6 secs

     total energy              =    -653.78075244 Ry
     estimated scf accuracy    <          6.1E-11 Ry

     total magnetization       =     0.00 Bohr mag/cell
     absolute magnetization    =     0.01 Bohr mag/cell

     iteration # 15     ecut=   120.00 Ry     beta= 0.70
     Davidson diagonalization with overlap
     ethr =  1.90E-13,  avg # of iterations =  1.7

     total cpu time spent up to now is      726.7 secs

     total energy              =    -653.78075244 Ry
     estimated scf accuracy    <          2.2E-11 Ry

     total magnetization       =     0.00 Bohr mag/cell
     absolute magnetization    =     0.01 Bohr mag/cell

     iteration # 16     ecut=   120.00 Ry     beta= 0.70
     Davidson diagonalization with overlap
     ethr =  1.00E-13,  avg # of iterations =  1.8

     total cpu time spent up to now is      730.9 secs

     total energy              =    -653.78075244 Ry
     estimated scf accuracy    <          2.1E-11 Ry

     total magnetization       =     0.00 Bohr mag/cell
     absolute magnetization    =     0.01 Bohr mag/cell

     iteration # 17     ecut=   120.00 Ry     beta= 0.70
     Davidson diagonalization with overlap
     ethr =  1.00E-13,  avg # of iterations =  2.0

     total cpu time spent up to now is      735.2 secs

     total energy              =    -653.78075244 Ry
     estimated scf accuracy    <          2.2E-11 Ry

     total magnetization       =     0.00 Bohr mag/cell
     absolute magnetization    =     0.01 Bohr mag/cell

     iteration # 18     ecut=   120.00 Ry     beta= 0.70
     Davidson diagonalization with overlap
     ethr =  1.00E-13,  avg # of iterations =  1.7

     total cpu time spent up to now is      739.3 secs

     total energy              =    -653.78075244 Ry
     estimated scf accuracy    <          2.3E-11 Ry

     total magnetization       =     0.00 Bohr mag/cell
     absolute magnetization    =     0.01 Bohr mag/cell

     iteration # 19     ecut=   120.00 Ry     beta= 0.70
     Davidson diagonalization with overlap
     ethr =  1.00E-13,  avg # of iterations =  1.0

     total cpu time spent up to now is      743.1 secs

     total energy              =    -653.78075243 Ry
     estimated scf accuracy    <          2.5E-11 Ry

     total magnetization       =    -0.00 Bohr mag/cell
     absolute magnetization    =     0.01 Bohr mag/cell

     iteration # 20     ecut=   120.00 Ry     beta= 0.70
     Davidson diagonalization with overlap
     ethr =  1.00E-13,  avg # of iterations =  5.4

     total cpu time spent up to now is      750.8 secs

     total energy              =    -653.78075239 Ry
     estimated scf accuracy    <          3.4E-11 Ry

     total magnetization       =    -0.00 Bohr mag/cell
     absolute magnetization    =     0.01 Bohr mag/cell

     iteration # 21     ecut=   120.00 Ry     beta= 0.70
     Davidson diagonalization with overlap
     ethr =  1.00E-13,  avg # of iterations =  7.0

     total cpu time spent up to now is      760.3 secs

     total energy              =    -653.78075223 Ry
     estimated scf accuracy    <          2.2E-11 Ry

     total magnetization       =     0.00 Bohr mag/cell
     absolute magnetization    =     0.00 Bohr mag/cell

     iteration # 22     ecut=   120.00 Ry     beta= 0.70
     Davidson diagonalization with overlap
     ethr =  1.00E-13,  avg # of iterations =  7.7

     Magnetic moment per site  (integrated on atomic sphere of radius R)
     atom   1 (R=0.339)  charge= 14.2709  magn=  0.0003
     atom   2 (R=0.339)  charge= 14.2709  magn= -0.0003

     total cpu time spent up to now is      771.3 secs

     End of self-consistent calculation

     Number of k-points >= 100: set verbosity='high' to print the bands.

     the Fermi energy is    20.8952 ev

!    total energy              =    -653.78075244 Ry
     total all-electron energy =     -5086.432171 Ry
     estimated scf accuracy    <          1.4E-12 Ry
     smearing contrib. (-TS)   =      -0.01678161 Ry
     internal energy E=F+TS    =    -653.76397082 Ry

     The total energy is F=E-TS. E is the sum of the following terms:
     one-electron contribution =    -197.97044670 Ry
     hartree contribution      =     121.83846886 Ry
     xc contribution           =     -54.79155632 Ry
     ewald contribution        =    -361.38303164 Ry
     one-center paw contrib.   =    -161.45740502 Ry

     total magnetization       =     0.00 Bohr mag/cell
     absolute magnetization    =     0.00 Bohr mag/cell

     convergence has been achieved in  22 iterations

     Forces acting on atoms (cartesian axes, Ry/au):

     atom    1 type  1   force =     0.00000000    0.00000000    0.00000000
     atom    2 type  2   force =     0.00000000    0.00000000    0.00000000

     Total force =     0.000000     Total SCF correction =     0.000000


     Computing stress (Cartesian axis) and pressure

          total   stress  (Ry/bohr**3)                   (kbar)     P=       -1.95
  -0.00001328   0.00000000   0.00000000           -1.95        0.00        0.00
   0.00000000  -0.00001328   0.00000000            0.00       -1.95        0.00
   0.00000000   0.00000000  -0.00001328            0.00        0.00       -1.95


     Writing all to output data dir ./temp/fe-afm.save/ :
     XML data file, charge density, pseudopotentials, collected wavefunctions

     init_run     :      4.36s CPU      4.64s WALL (       2 calls)
     electrons    :    699.18s CPU    738.18s WALL (       7 calls)
     update_pot   :      0.98s CPU      1.08s WALL (       5 calls)
     forces       :      5.94s CPU      6.17s WALL (       7 calls)
     stress       :     21.26s CPU     21.93s WALL (       7 calls)

     Called by init_run:
     wfcinit      :      2.61s CPU      2.76s WALL (       2 calls)
     potinit      :      0.76s CPU      0.80s WALL (       2 calls)
     hinit0       :      0.56s CPU      0.58s WALL (       2 calls)

     Called by electrons:
     c_bands      :    587.02s CPU    612.83s WALL (     115 calls)
     sum_band     :     78.19s CPU     86.02s WALL (     115 calls)
     v_of_rho     :      3.92s CPU      4.14s WALL (     119 calls)
     newd         :     12.80s CPU     16.22s WALL (     119 calls)
     PAW_pot      :     19.08s CPU     21.20s WALL (     124 calls)
     mix_rho      :      0.57s CPU      0.60s WALL (     115 calls)

     Called by c_bands:
     init_us_2    :      7.24s CPU      7.35s WALL (   28112 calls)
     cegterg      :    569.72s CPU    595.22s WALL (   12880 calls)

     Called by *egterg:
     cdiaghg      :     33.91s CPU     34.28s WALL (   53521 calls)
     h_psi        :    283.23s CPU    306.00s WALL (   54641 calls)
     s_psi        :     44.15s CPU     44.53s WALL (   54641 calls)
     g_psi        :      1.12s CPU      1.13s WALL (   41537 calls)

     Called by h_psi:
     h_psi:calbec :     48.64s CPU     51.63s WALL (   54641 calls)
     vloc_psi     :    188.71s CPU    208.06s WALL (   54641 calls)
     add_vuspsi   :     44.63s CPU     45.09s WALL (   54641 calls)

     General routines
     calbec       :     71.35s CPU     75.28s WALL (   72001 calls)
     fft          :      1.69s CPU      1.86s WALL (    3252 calls)
     ffts         :      0.39s CPU      0.40s WALL (     468 calls)
     fftw         :    183.07s CPU    201.97s WALL ( 1743418 calls)
     interpolate  :      0.49s CPU      0.51s WALL (     238 calls)

     Parallel routines

     PWSCF        :  12m14.42s CPU  12m55.17s WALL


   This run was terminated on:  14:19: 5  11Dec2025            

=------------------------------------------------------------------------------=
   JOB DONE.
=------------------------------------------------------------------------------=
