
     Program PWSCF v.7.3.1 starts on 11Dec2025 at 15:17:21 

     This program is part of the open-source Quantum ESPRESSO suite
     for quantum simulation of materials; please cite
         "P. Giannozzi et al., J. Phys.:Condens. Matter 21 395502 (2009);
         "P. Giannozzi et al., J. Phys.:Condens. Matter 29 465901 (2017);
         "P. Giannozzi et al., J. Chem. Phys. 152 154105 (2020);
          URL http://www.quantum-espresso.org", 
     in publications or presentations arising from this work. More details at
     http://www.quantum-espresso.org/quote

     Parallel version (MPI), running on     6 processors

     MPI processes distributed on     1 nodes
     21268 MiB available memory on the printing compute node when the environment starts

     Reading input from scf-nm/scf-nm.in

     Current dimensions of program PWSCF are:
     Max number of different atomic species (ntypx) = 10
     Max number of k-points (npk) =  40000
     Max angular momentum in pseudopotentials (lmaxx) =  4
     file Fe.pbesol-spn-kjpaw_psl.1.0.0.UPF: wavefunction(s)  3P 3D renormalized
     file Fe.pbesol-spn-kjpaw_psl.1.0.0.UPF: wavefunction(s)  3P 3D renormalized

     R & G space division:  proc/nbgrp/npool/nimage =       6
     Subspace diagonalization in iterative solution of the eigenvalue problem:
     a serial algorithm will be used


     Parallelization info
     --------------------
     sticks:   dense  smooth     PW     G-vecs:    dense   smooth      PW
     Min         351     175     50                12240     4303     688
     Max         352     179     52                12242     4304     691
     Sum        2109    1057    305                73447    25821    4139

     Using Slab Decomposition



     bravais-lattice index     =            1
     lattice parameter (alat)  =       5.2715  a.u.
     unit-cell volume          =     146.4906 (a.u.)^3
     number of atoms/cell      =            2
     number of atomic types    =            2
     number of electrons       =        32.00
     number of Kohn-Sham states=           20
     kinetic-energy cutoff     =     120.0000  Ry
     charge density cutoff     =     960.0000  Ry
     scf convergence threshold =      1.0E-10
     mixing beta               =       0.7000
     number of iterations used =            8  plain     mixing
     Exchange-correlation= SLA  PW   PSX  PSC
                           (   1   4  10   8   0   0   0)

     celldm(1)=   5.271529  celldm(2)=   0.000000  celldm(3)=   0.000000
     celldm(4)=   0.000000  celldm(5)=   0.000000  celldm(6)=   0.000000

     crystal axes: (cart. coord. in units of alat)
               a(1) = (   1.000000   0.000000   0.000000 )  
               a(2) = (   0.000000   1.000000   0.000000 )  
               a(3) = (   0.000000   0.000000   1.000000 )  

     reciprocal axes: (cart. coord. in units 2 pi/alat)
               b(1) = (  1.000000  0.000000  0.000000 )  
               b(2) = (  0.000000  1.000000  0.000000 )  
               b(3) = (  0.000000  0.000000  1.000000 )  


     PseudoPot. # 1 for Fe read from file:
     ./../../../pseudos/Fe.pbesol-spn-kjpaw_psl.1.0.0.UPF
     MD5 check sum: e30d5f36a6f0cb983ee41abee56170da
     Pseudo is Projector augmented-wave + core cor, Zval = 16.0
     Generated using &quot;atomic&quot; code by A. Dal Corso  v.6.3
     Shape of augmentation charge: PSQ
     Using radial grid of 1191 points,  6 beta functions with: 
                l(1) =   0
                l(2) =   0
                l(3) =   1
                l(4) =   1
                l(5) =   2
                l(6) =   2
     Q(r) pseudized with 0 coefficients 


     PseudoPot. # 2 for Fe read from file:
     ./../../../pseudos/Fe.pbesol-spn-kjpaw_psl.1.0.0.UPF
     MD5 check sum: e30d5f36a6f0cb983ee41abee56170da
     Pseudo is Projector augmented-wave + core cor, Zval = 16.0
     Generated using &quot;atomic&quot; code by A. Dal Corso  v.6.3
     Shape of augmentation charge: PSQ
     Using radial grid of 1191 points,  6 beta functions with: 
                l(1) =   0
                l(2) =   0
                l(3) =   1
                l(4) =   1
                l(5) =   2
                l(6) =   2
     Q(r) pseudized with 0 coefficients 


     atomic species   valence    mass     pseudopotential
     Fe1              16.00    55.84500     Fe( 1.00)
     Fe2              16.00    55.84500     Fe( 1.00)

     48 Sym. Ops., with inversion, found


                                    s                        frac. trans.

      isym =  1     identity                                     

 cryst.   s( 1) = (     1          0          0      )
                  (     0          1          0      )
                  (     0          0          1      )

 cart.    s( 1) = (  1.0000000  0.0000000  0.0000000 )
                  (  0.0000000  1.0000000  0.0000000 )
                  (  0.0000000  0.0000000  1.0000000 )


      isym =  2     180 deg rotation - cart. axis [0,0,1]        

 cryst.   s( 2) = (    -1          0          0      )
                  (     0         -1          0      )
                  (     0          0          1      )

 cart.    s( 2) = ( -1.0000000  0.0000000  0.0000000 )
                  (  0.0000000 -1.0000000  0.0000000 )
                  (  0.0000000  0.0000000  1.0000000 )


      isym =  3     180 deg rotation - cart. axis [0,1,0]        

 cryst.   s( 3) = (    -1          0          0      )
                  (     0          1          0      )
                  (     0          0         -1      )

 cart.    s( 3) = ( -1.0000000  0.0000000  0.0000000 )
                  (  0.0000000  1.0000000  0.0000000 )
                  (  0.0000000  0.0000000 -1.0000000 )


      isym =  4     180 deg rotation - cart. axis [1,0,0]        

 cryst.   s( 4) = (     1          0          0      )
                  (     0         -1          0      )
                  (     0          0         -1      )

 cart.    s( 4) = (  1.0000000  0.0000000  0.0000000 )
                  (  0.0000000 -1.0000000  0.0000000 )
                  (  0.0000000  0.0000000 -1.0000000 )


      isym =  5     180 deg rotation - cart. axis [1,1,0]        

 cryst.   s( 5) = (     0          1          0      )
                  (     1          0          0      )
                  (     0          0         -1      )

 cart.    s( 5) = (  0.0000000  1.0000000  0.0000000 )
                  (  1.0000000  0.0000000  0.0000000 )
                  (  0.0000000  0.0000000 -1.0000000 )


      isym =  6     180 deg rotation - cart. axis [1,-1,0]       

 cryst.   s( 6) = (     0         -1          0      )
                  (    -1          0          0      )
                  (     0          0         -1      )

 cart.    s( 6) = (  0.0000000 -1.0000000  0.0000000 )
                  ( -1.0000000  0.0000000  0.0000000 )
                  (  0.0000000  0.0000000 -1.0000000 )


      isym =  7      90 deg rotation - cart. axis [0,0,-1]       

 cryst.   s( 7) = (     0         -1          0      )
                  (     1          0          0      )
                  (     0          0          1      )

 cart.    s( 7) = (  0.0000000  1.0000000  0.0000000 )
                  ( -1.0000000  0.0000000  0.0000000 )
                  (  0.0000000  0.0000000  1.0000000 )


      isym =  8      90 deg rotation - cart. axis [0,0,1]        

 cryst.   s( 8) = (     0          1          0      )
                  (    -1          0          0      )
                  (     0          0          1      )

 cart.    s( 8) = (  0.0000000 -1.0000000  0.0000000 )
                  (  1.0000000  0.0000000  0.0000000 )
                  (  0.0000000  0.0000000  1.0000000 )


      isym =  9     180 deg rotation - cart. axis [1,0,1]        

 cryst.   s( 9) = (     0          0          1      )
                  (     0         -1          0      )
                  (     1          0          0      )

 cart.    s( 9) = (  0.0000000  0.0000000  1.0000000 )
                  (  0.0000000 -1.0000000  0.0000000 )
                  (  1.0000000  0.0000000  0.0000000 )


      isym = 10     180 deg rotation - cart. axis [-1,0,1]       

 cryst.   s(10) = (     0          0         -1      )
                  (     0         -1          0      )
                  (    -1          0          0      )

 cart.    s(10) = (  0.0000000  0.0000000 -1.0000000 )
                  (  0.0000000 -1.0000000  0.0000000 )
                  ( -1.0000000  0.0000000  0.0000000 )


      isym = 11      90 deg rotation - cart. axis [0,1,0]        

 cryst.   s(11) = (     0          0         -1      )
                  (     0          1          0      )
                  (     1          0          0      )

 cart.    s(11) = (  0.0000000  0.0000000  1.0000000 )
                  (  0.0000000  1.0000000  0.0000000 )
                  ( -1.0000000  0.0000000  0.0000000 )


      isym = 12      90 deg rotation - cart. axis [0,-1,0]       

 cryst.   s(12) = (     0          0          1      )
                  (     0          1          0      )
                  (    -1          0          0      )

 cart.    s(12) = (  0.0000000  0.0000000 -1.0000000 )
                  (  0.0000000  1.0000000  0.0000000 )
                  (  1.0000000  0.0000000  0.0000000 )


      isym = 13     180 deg rotation - cart. axis [0,1,1]        

 cryst.   s(13) = (    -1          0          0      )
                  (     0          0          1      )
                  (     0          1          0      )

 cart.    s(13) = ( -1.0000000  0.0000000  0.0000000 )
                  (  0.0000000  0.0000000  1.0000000 )
                  (  0.0000000  1.0000000  0.0000000 )


      isym = 14     180 deg rotation - cart. axis [0,1,-1]       

 cryst.   s(14) = (    -1          0          0      )
                  (     0          0         -1      )
                  (     0         -1          0      )

 cart.    s(14) = ( -1.0000000  0.0000000  0.0000000 )
                  (  0.0000000  0.0000000 -1.0000000 )
                  (  0.0000000 -1.0000000  0.0000000 )


      isym = 15      90 deg rotation - cart. axis [-1,0,0]       

 cryst.   s(15) = (     1          0          0      )
                  (     0          0         -1      )
                  (     0          1          0      )

 cart.    s(15) = (  1.0000000  0.0000000  0.0000000 )
                  (  0.0000000  0.0000000  1.0000000 )
                  (  0.0000000 -1.0000000  0.0000000 )


      isym = 16      90 deg rotation - cart. axis [1,0,0]        

 cryst.   s(16) = (     1          0          0      )
                  (     0          0          1      )
                  (     0         -1          0      )

 cart.    s(16) = (  1.0000000  0.0000000  0.0000000 )
                  (  0.0000000  0.0000000 -1.0000000 )
                  (  0.0000000  1.0000000  0.0000000 )


      isym = 17     120 deg rotation - cart. axis [-1,-1,-1]     

 cryst.   s(17) = (     0          0          1      )
                  (     1          0          0      )
                  (     0          1          0      )

 cart.    s(17) = (  0.0000000  1.0000000  0.0000000 )
                  (  0.0000000  0.0000000  1.0000000 )
                  (  1.0000000  0.0000000  0.0000000 )


      isym = 18     120 deg rotation - cart. axis [-1,1,1]       

 cryst.   s(18) = (     0          0         -1      )
                  (    -1          0          0      )
                  (     0          1          0      )

 cart.    s(18) = (  0.0000000 -1.0000000  0.0000000 )
                  (  0.0000000  0.0000000  1.0000000 )
                  ( -1.0000000  0.0000000  0.0000000 )


      isym = 19     120 deg rotation - cart. axis [1,1,-1]       

 cryst.   s(19) = (     0          0         -1      )
                  (     1          0          0      )
                  (     0         -1          0      )

 cart.    s(19) = (  0.0000000  1.0000000  0.0000000 )
                  (  0.0000000  0.0000000 -1.0000000 )
                  ( -1.0000000  0.0000000  0.0000000 )


      isym = 20     120 deg rotation - cart. axis [1,-1,1]       

 cryst.   s(20) = (     0          0          1      )
                  (    -1          0          0      )
                  (     0         -1          0      )

 cart.    s(20) = (  0.0000000 -1.0000000  0.0000000 )
                  (  0.0000000  0.0000000 -1.0000000 )
                  (  1.0000000  0.0000000  0.0000000 )


      isym = 21     120 deg rotation - cart. axis [1,1,1]        

 cryst.   s(21) = (     0          1          0      )
                  (     0          0          1      )
                  (     1          0          0      )

 cart.    s(21) = (  0.0000000  0.0000000  1.0000000 )
                  (  1.0000000  0.0000000  0.0000000 )
                  (  0.0000000  1.0000000  0.0000000 )


      isym = 22     120 deg rotation - cart. axis [-1,1,-1]      

 cryst.   s(22) = (     0         -1          0      )
                  (     0          0         -1      )
                  (     1          0          0      )

 cart.    s(22) = (  0.0000000  0.0000000  1.0000000 )
                  ( -1.0000000  0.0000000  0.0000000 )
                  (  0.0000000 -1.0000000  0.0000000 )


      isym = 23     120 deg rotation - cart. axis [1,-1,-1]      

 cryst.   s(23) = (     0         -1          0      )
                  (     0          0          1      )
                  (    -1          0          0      )

 cart.    s(23) = (  0.0000000  0.0000000 -1.0000000 )
                  ( -1.0000000  0.0000000  0.0000000 )
                  (  0.0000000  1.0000000  0.0000000 )


      isym = 24     120 deg rotation - cart. axis [-1,-1,1]      

 cryst.   s(24) = (     0          1          0      )
                  (     0          0         -1      )
                  (    -1          0          0      )

 cart.    s(24) = (  0.0000000  0.0000000 -1.0000000 )
                  (  1.0000000  0.0000000  0.0000000 )
                  (  0.0000000 -1.0000000  0.0000000 )


      isym = 25     inversion                                    

 cryst.   s(25) = (    -1          0          0      )
                  (     0         -1          0      )
                  (     0          0         -1      )

 cart.    s(25) = ( -1.0000000  0.0000000  0.0000000 )
                  (  0.0000000 -1.0000000  0.0000000 )
                  (  0.0000000  0.0000000 -1.0000000 )


      isym = 26     inv. 180 deg rotation - cart. axis [0,0,1]   

 cryst.   s(26) = (     1          0          0      )
                  (     0          1          0      )
                  (     0          0         -1      )

 cart.    s(26) = (  1.0000000  0.0000000  0.0000000 )
                  (  0.0000000  1.0000000  0.0000000 )
                  (  0.0000000  0.0000000 -1.0000000 )


      isym = 27     inv. 180 deg rotation - cart. axis [0,1,0]   

 cryst.   s(27) = (     1          0          0      )
                  (     0         -1          0      )
                  (     0          0          1      )

 cart.    s(27) = (  1.0000000  0.0000000  0.0000000 )
                  (  0.0000000 -1.0000000  0.0000000 )
                  (  0.0000000  0.0000000  1.0000000 )


      isym = 28     inv. 180 deg rotation - cart. axis [1,0,0]   

 cryst.   s(28) = (    -1          0          0      )
                  (     0          1          0      )
                  (     0          0          1      )

 cart.    s(28) = ( -1.0000000  0.0000000  0.0000000 )
                  (  0.0000000  1.0000000  0.0000000 )
                  (  0.0000000  0.0000000  1.0000000 )


      isym = 29     inv. 180 deg rotation - cart. axis [1,1,0]   

 cryst.   s(29) = (     0         -1          0      )
                  (    -1          0          0      )
                  (     0          0          1      )

 cart.    s(29) = (  0.0000000 -1.0000000  0.0000000 )
                  ( -1.0000000  0.0000000  0.0000000 )
                  (  0.0000000  0.0000000  1.0000000 )


      isym = 30     inv. 180 deg rotation - cart. axis [1,-1,0]  

 cryst.   s(30) = (     0          1          0      )
                  (     1          0          0      )
                  (     0          0          1      )

 cart.    s(30) = (  0.0000000  1.0000000  0.0000000 )
                  (  1.0000000  0.0000000  0.0000000 )
                  (  0.0000000  0.0000000  1.0000000 )


      isym = 31     inv.  90 deg rotation - cart. axis [0,0,-1]  

 cryst.   s(31) = (     0          1          0      )
                  (    -1          0          0      )
                  (     0          0         -1      )

 cart.    s(31) = (  0.0000000 -1.0000000  0.0000000 )
                  (  1.0000000  0.0000000  0.0000000 )
                  (  0.0000000  0.0000000 -1.0000000 )


      isym = 32     inv.  90 deg rotation - cart. axis [0,0,1]   

 cryst.   s(32) = (     0         -1          0      )
                  (     1          0          0      )
                  (     0          0         -1      )

 cart.    s(32) = (  0.0000000  1.0000000  0.0000000 )
                  ( -1.0000000  0.0000000  0.0000000 )
                  (  0.0000000  0.0000000 -1.0000000 )


      isym = 33     inv. 180 deg rotation - cart. axis [1,0,1]   

 cryst.   s(33) = (     0          0         -1      )
                  (     0          1          0      )
                  (    -1          0          0      )

 cart.    s(33) = (  0.0000000  0.0000000 -1.0000000 )
                  (  0.0000000  1.0000000  0.0000000 )
                  ( -1.0000000  0.0000000  0.0000000 )


      isym = 34     inv. 180 deg rotation - cart. axis [-1,0,1]  

 cryst.   s(34) = (     0          0          1      )
                  (     0          1          0      )
                  (     1          0          0      )

 cart.    s(34) = (  0.0000000  0.0000000  1.0000000 )
                  (  0.0000000  1.0000000  0.0000000 )
                  (  1.0000000  0.0000000  0.0000000 )


      isym = 35     inv.  90 deg rotation - cart. axis [0,1,0]   

 cryst.   s(35) = (     0          0          1      )
                  (     0         -1          0      )
                  (    -1          0          0      )

 cart.    s(35) = (  0.0000000  0.0000000 -1.0000000 )
                  (  0.0000000 -1.0000000  0.0000000 )
                  (  1.0000000  0.0000000  0.0000000 )


      isym = 36     inv.  90 deg rotation - cart. axis [0,-1,0]  

 cryst.   s(36) = (     0          0         -1      )
                  (     0         -1          0      )
                  (     1          0          0      )

 cart.    s(36) = (  0.0000000  0.0000000  1.0000000 )
                  (  0.0000000 -1.0000000  0.0000000 )
                  ( -1.0000000  0.0000000  0.0000000 )


      isym = 37     inv. 180 deg rotation - cart. axis [0,1,1]   

 cryst.   s(37) = (     1          0          0      )
                  (     0          0         -1      )
                  (     0         -1          0      )

 cart.    s(37) = (  1.0000000  0.0000000  0.0000000 )
                  (  0.0000000  0.0000000 -1.0000000 )
                  (  0.0000000 -1.0000000  0.0000000 )


      isym = 38     inv. 180 deg rotation - cart. axis [0,1,-1]  

 cryst.   s(38) = (     1          0          0      )
                  (     0          0          1      )
                  (     0          1          0      )

 cart.    s(38) = (  1.0000000  0.0000000  0.0000000 )
                  (  0.0000000  0.0000000  1.0000000 )
                  (  0.0000000  1.0000000  0.0000000 )


      isym = 39     inv.  90 deg rotation - cart. axis [-1,0,0]  

 cryst.   s(39) = (    -1          0          0      )
                  (     0          0          1      )
                  (     0         -1          0      )

 cart.    s(39) = ( -1.0000000  0.0000000  0.0000000 )
                  (  0.0000000  0.0000000 -1.0000000 )
                  (  0.0000000  1.0000000  0.0000000 )


      isym = 40     inv.  90 deg rotation - cart. axis [1,0,0]   

 cryst.   s(40) = (    -1          0          0      )
                  (     0          0         -1      )
                  (     0          1          0      )

 cart.    s(40) = ( -1.0000000  0.0000000  0.0000000 )
                  (  0.0000000  0.0000000  1.0000000 )
                  (  0.0000000 -1.0000000  0.0000000 )


      isym = 41     inv. 120 deg rotation - cart. axis [-1,-1,-1]

 cryst.   s(41) = (     0          0         -1      )
                  (    -1          0          0      )
                  (     0         -1          0      )

 cart.    s(41) = (  0.0000000 -1.0000000  0.0000000 )
                  (  0.0000000  0.0000000 -1.0000000 )
                  ( -1.0000000  0.0000000  0.0000000 )


      isym = 42     inv. 120 deg rotation - cart. axis [-1,1,1]  

 cryst.   s(42) = (     0          0          1      )
                  (     1          0          0      )
                  (     0         -1          0      )

 cart.    s(42) = (  0.0000000  1.0000000  0.0000000 )
                  (  0.0000000  0.0000000 -1.0000000 )
                  (  1.0000000  0.0000000  0.0000000 )


      isym = 43     inv. 120 deg rotation - cart. axis [1,1,-1]  

 cryst.   s(43) = (     0          0          1      )
                  (    -1          0          0      )
                  (     0          1          0      )

 cart.    s(43) = (  0.0000000 -1.0000000  0.0000000 )
                  (  0.0000000  0.0000000  1.0000000 )
                  (  1.0000000  0.0000000  0.0000000 )


      isym = 44     inv. 120 deg rotation - cart. axis [1,-1,1]  

 cryst.   s(44) = (     0          0         -1      )
                  (     1          0          0      )
                  (     0          1          0      )

 cart.    s(44) = (  0.0000000  1.0000000  0.0000000 )
                  (  0.0000000  0.0000000  1.0000000 )
                  ( -1.0000000  0.0000000  0.0000000 )


      isym = 45     inv. 120 deg rotation - cart. axis [1,1,1]   

 cryst.   s(45) = (     0         -1          0      )
                  (     0          0         -1      )
                  (    -1          0          0      )

 cart.    s(45) = (  0.0000000  0.0000000 -1.0000000 )
                  ( -1.0000000  0.0000000  0.0000000 )
                  (  0.0000000 -1.0000000  0.0000000 )


      isym = 46     inv. 120 deg rotation - cart. axis [-1,1,-1] 

 cryst.   s(46) = (     0          1          0      )
                  (     0          0          1      )
                  (    -1          0          0      )

 cart.    s(46) = (  0.0000000  0.0000000 -1.0000000 )
                  (  1.0000000  0.0000000  0.0000000 )
                  (  0.0000000  1.0000000  0.0000000 )


      isym = 47     inv. 120 deg rotation - cart. axis [1,-1,-1] 

 cryst.   s(47) = (     0          1          0      )
                  (     0          0         -1      )
                  (     1          0          0      )

 cart.    s(47) = (  0.0000000  0.0000000  1.0000000 )
                  (  1.0000000  0.0000000  0.0000000 )
                  (  0.0000000 -1.0000000  0.0000000 )


      isym = 48     inv. 120 deg rotation - cart. axis [-1,-1,1] 

 cryst.   s(48) = (     0         -1          0      )
                  (     0          0          1      )
                  (     1          0          0      )

 cart.    s(48) = (  0.0000000  0.0000000  1.0000000 )
                  ( -1.0000000  0.0000000  0.0000000 )
                  (  0.0000000  1.0000000  0.0000000 )


     point group O_h (m-3m) 
     there are 10 classes
     the character table:

       E     8C3   3C2   6C4   6C2'  i     8S6   3s_h  6S4   6s_d 
A_1g   1.00  1.00  1.00  1.00  1.00  1.00  1.00  1.00  1.00  1.00
A_2g   1.00  1.00  1.00 -1.00 -1.00  1.00  1.00  1.00 -1.00 -1.00
E_g    2.00 -1.00  2.00  0.00  0.00  2.00 -1.00  2.00  0.00  0.00
T_1g   3.00  0.00 -1.00  1.00 -1.00  3.00  0.00 -1.00  1.00 -1.00
T_2g   3.00  0.00 -1.00 -1.00  1.00  3.00  0.00 -1.00 -1.00  1.00
A_1u   1.00  1.00  1.00  1.00  1.00 -1.00 -1.00 -1.00 -1.00 -1.00
A_2u   1.00  1.00  1.00 -1.00 -1.00 -1.00 -1.00 -1.00  1.00  1.00
E_u    2.00 -1.00  2.00  0.00  0.00 -2.00  1.00 -2.00  0.00  0.00
T_1u   3.00  0.00 -1.00  1.00 -1.00 -3.00  0.00  1.00 -1.00  1.00
T_2u   3.00  0.00 -1.00 -1.00  1.00 -3.00  0.00  1.00  1.00 -1.00

     the symmetry operations in each class and the name of the first element:

     E        1
          identity                                               
     8C3     17   19   20   18   24   21   22   23
          120 deg rotation - cart. axis [-1,-1,-1]               
     3C2      2    4    3
          180 deg rotation - cart. axis [0,0,1]                  
     6C4      7    8   15   16   12   11
           90 deg rotation - cart. axis [0,0,-1]                 
     6C2'     5    6   14   13   10    9
          180 deg rotation - cart. axis [1,1,0]                  
     i       25
          inversion                                              
     8S6     41   43   44   42   48   45   46   47
          inv. 120 deg rotation - cart. axis [-1,-1,-1]          
     3s_h    26   28   27
          inv. 180 deg rotation - cart. axis [0,0,1]             
     6S4     31   32   39   40   36   35
          inv.  90 deg rotation - cart. axis [0,0,-1]            
     6s_d    29   30   38   37   34   33
          inv. 180 deg rotation - cart. axis [1,1,0]             

   Cartesian axes

     site n.     atom                  positions (alat units)
         1        Fe1    tau(   1) = (   0.0000000   0.0000000   0.0000000  )
         2        Fe2    tau(   2) = (   0.5000000   0.5000000   0.5000000  )

   Crystallographic axes

     site n.     atom                  positions (cryst. coord.)
         1        Fe1    tau(   1) = (  0.0000000  0.0000000  0.0000000  )
         2        Fe2    tau(   2) = (  0.5000000  0.5000000  0.5000000  )

     number of k points=    56  Gaussian smearing, width (Ry)=  0.0200
                       cart. coord. in units 2pi/alat
        k(    1) = (   0.0000000   0.0000000   0.0000000), wk =   0.0015026
        k(    2) = (   0.0000000   0.0000000   0.0909091), wk =   0.0090158
        k(    3) = (   0.0000000   0.0000000   0.1818182), wk =   0.0090158
        k(    4) = (   0.0000000   0.0000000   0.2727273), wk =   0.0090158
        k(    5) = (   0.0000000   0.0000000   0.3636364), wk =   0.0090158
        k(    6) = (   0.0000000   0.0000000   0.4545455), wk =   0.0090158
        k(    7) = (   0.0000000   0.0909091   0.0909091), wk =   0.0180316
        k(    8) = (   0.0000000   0.0909091   0.1818182), wk =   0.0360631
        k(    9) = (   0.0000000   0.0909091   0.2727273), wk =   0.0360631
        k(   10) = (   0.0000000   0.0909091   0.3636364), wk =   0.0360631
        k(   11) = (   0.0000000   0.0909091   0.4545455), wk =   0.0360631
        k(   12) = (   0.0000000   0.1818182   0.1818182), wk =   0.0180316
        k(   13) = (   0.0000000   0.1818182   0.2727273), wk =   0.0360631
        k(   14) = (   0.0000000   0.1818182   0.3636364), wk =   0.0360631
        k(   15) = (   0.0000000   0.1818182   0.4545455), wk =   0.0360631
        k(   16) = (   0.0000000   0.2727273   0.2727273), wk =   0.0180316
        k(   17) = (   0.0000000   0.2727273   0.3636364), wk =   0.0360631
        k(   18) = (   0.0000000   0.2727273   0.4545455), wk =   0.0360631
        k(   19) = (   0.0000000   0.3636364   0.3636364), wk =   0.0180316
        k(   20) = (   0.0000000   0.3636364   0.4545455), wk =   0.0360631
        k(   21) = (   0.0000000   0.4545455   0.4545455), wk =   0.0180316
        k(   22) = (   0.0909091   0.0909091   0.0909091), wk =   0.0120210
        k(   23) = (   0.0909091   0.0909091   0.1818182), wk =   0.0360631
        k(   24) = (   0.0909091   0.0909091   0.2727273), wk =   0.0360631
        k(   25) = (   0.0909091   0.0909091   0.3636364), wk =   0.0360631
        k(   26) = (   0.0909091   0.0909091   0.4545455), wk =   0.0360631
        k(   27) = (   0.0909091   0.1818182   0.1818182), wk =   0.0360631
        k(   28) = (   0.0909091   0.1818182   0.2727273), wk =   0.0721262
        k(   29) = (   0.0909091   0.1818182   0.3636364), wk =   0.0721262
        k(   30) = (   0.0909091   0.1818182   0.4545455), wk =   0.0721262
        k(   31) = (   0.0909091   0.2727273   0.2727273), wk =   0.0360631
        k(   32) = (   0.0909091   0.2727273   0.3636364), wk =   0.0721262
        k(   33) = (   0.0909091   0.2727273   0.4545455), wk =   0.0721262
        k(   34) = (   0.0909091   0.3636364   0.3636364), wk =   0.0360631
        k(   35) = (   0.0909091   0.3636364   0.4545455), wk =   0.0721262
        k(   36) = (   0.0909091   0.4545455   0.4545455), wk =   0.0360631
        k(   37) = (   0.1818182   0.1818182   0.1818182), wk =   0.0120210
        k(   38) = (   0.1818182   0.1818182   0.2727273), wk =   0.0360631
        k(   39) = (   0.1818182   0.1818182   0.3636364), wk =   0.0360631
        k(   40) = (   0.1818182   0.1818182   0.4545455), wk =   0.0360631
        k(   41) = (   0.1818182   0.2727273   0.2727273), wk =   0.0360631
        k(   42) = (   0.1818182   0.2727273   0.3636364), wk =   0.0721262
        k(   43) = (   0.1818182   0.2727273   0.4545455), wk =   0.0721262
        k(   44) = (   0.1818182   0.3636364   0.3636364), wk =   0.0360631
        k(   45) = (   0.1818182   0.3636364   0.4545455), wk =   0.0721262
        k(   46) = (   0.1818182   0.4545455   0.4545455), wk =   0.0360631
        k(   47) = (   0.2727273   0.2727273   0.2727273), wk =   0.0120210
        k(   48) = (   0.2727273   0.2727273   0.3636364), wk =   0.0360631
        k(   49) = (   0.2727273   0.2727273   0.4545455), wk =   0.0360631
        k(   50) = (   0.2727273   0.3636364   0.3636364), wk =   0.0360631
        k(   51) = (   0.2727273   0.3636364   0.4545455), wk =   0.0721262
        k(   52) = (   0.2727273   0.4545455   0.4545455), wk =   0.0360631
        k(   53) = (   0.3636364   0.3636364   0.3636364), wk =   0.0120210
        k(   54) = (   0.3636364   0.3636364   0.4545455), wk =   0.0360631
        k(   55) = (   0.3636364   0.4545455   0.4545455), wk =   0.0360631
        k(   56) = (   0.4545455   0.4545455   0.4545455), wk =   0.0120210

                       cryst. coord.
        k(    1) = (   0.0000000   0.0000000   0.0000000), wk =   0.0015026
        k(    2) = (   0.0000000   0.0000000   0.0909091), wk =   0.0090158
        k(    3) = (   0.0000000   0.0000000   0.1818182), wk =   0.0090158
        k(    4) = (   0.0000000   0.0000000   0.2727273), wk =   0.0090158
        k(    5) = (   0.0000000   0.0000000   0.3636364), wk =   0.0090158
        k(    6) = (   0.0000000   0.0000000   0.4545455), wk =   0.0090158
        k(    7) = (   0.0000000   0.0909091   0.0909091), wk =   0.0180316
        k(    8) = (   0.0000000   0.0909091   0.1818182), wk =   0.0360631
        k(    9) = (   0.0000000   0.0909091   0.2727273), wk =   0.0360631
        k(   10) = (   0.0000000   0.0909091   0.3636364), wk =   0.0360631
        k(   11) = (   0.0000000   0.0909091   0.4545455), wk =   0.0360631
        k(   12) = (   0.0000000   0.1818182   0.1818182), wk =   0.0180316
        k(   13) = (   0.0000000   0.1818182   0.2727273), wk =   0.0360631
        k(   14) = (   0.0000000   0.1818182   0.3636364), wk =   0.0360631
        k(   15) = (   0.0000000   0.1818182   0.4545455), wk =   0.0360631
        k(   16) = (   0.0000000   0.2727273   0.2727273), wk =   0.0180316
        k(   17) = (   0.0000000   0.2727273   0.3636364), wk =   0.0360631
        k(   18) = (   0.0000000   0.2727273   0.4545455), wk =   0.0360631
        k(   19) = (   0.0000000   0.3636364   0.3636364), wk =   0.0180316
        k(   20) = (   0.0000000   0.3636364   0.4545455), wk =   0.0360631
        k(   21) = (   0.0000000   0.4545455   0.4545455), wk =   0.0180316
        k(   22) = (   0.0909091   0.0909091   0.0909091), wk =   0.0120210
        k(   23) = (   0.0909091   0.0909091   0.1818182), wk =   0.0360631
        k(   24) = (   0.0909091   0.0909091   0.2727273), wk =   0.0360631
        k(   25) = (   0.0909091   0.0909091   0.3636364), wk =   0.0360631
        k(   26) = (   0.0909091   0.0909091   0.4545455), wk =   0.0360631
        k(   27) = (   0.0909091   0.1818182   0.1818182), wk =   0.0360631
        k(   28) = (   0.0909091   0.1818182   0.2727273), wk =   0.0721262
        k(   29) = (   0.0909091   0.1818182   0.3636364), wk =   0.0721262
        k(   30) = (   0.0909091   0.1818182   0.4545455), wk =   0.0721262
        k(   31) = (   0.0909091   0.2727273   0.2727273), wk =   0.0360631
        k(   32) = (   0.0909091   0.2727273   0.3636364), wk =   0.0721262
        k(   33) = (   0.0909091   0.2727273   0.4545455), wk =   0.0721262
        k(   34) = (   0.0909091   0.3636364   0.3636364), wk =   0.0360631
        k(   35) = (   0.0909091   0.3636364   0.4545455), wk =   0.0721262
        k(   36) = (   0.0909091   0.4545455   0.4545455), wk =   0.0360631
        k(   37) = (   0.1818182   0.1818182   0.1818182), wk =   0.0120210
        k(   38) = (   0.1818182   0.1818182   0.2727273), wk =   0.0360631
        k(   39) = (   0.1818182   0.1818182   0.3636364), wk =   0.0360631
        k(   40) = (   0.1818182   0.1818182   0.4545455), wk =   0.0360631
        k(   41) = (   0.1818182   0.2727273   0.2727273), wk =   0.0360631
        k(   42) = (   0.1818182   0.2727273   0.3636364), wk =   0.0721262
        k(   43) = (   0.1818182   0.2727273   0.4545455), wk =   0.0721262
        k(   44) = (   0.1818182   0.3636364   0.3636364), wk =   0.0360631
        k(   45) = (   0.1818182   0.3636364   0.4545455), wk =   0.0721262
        k(   46) = (   0.1818182   0.4545455   0.4545455), wk =   0.0360631
        k(   47) = (   0.2727273   0.2727273   0.2727273), wk =   0.0120210
        k(   48) = (   0.2727273   0.2727273   0.3636364), wk =   0.0360631
        k(   49) = (   0.2727273   0.2727273   0.4545455), wk =   0.0360631
        k(   50) = (   0.2727273   0.3636364   0.3636364), wk =   0.0360631
        k(   51) = (   0.2727273   0.3636364   0.4545455), wk =   0.0721262
        k(   52) = (   0.2727273   0.4545455   0.4545455), wk =   0.0360631
        k(   53) = (   0.3636364   0.3636364   0.3636364), wk =   0.0120210
        k(   54) = (   0.3636364   0.3636364   0.4545455), wk =   0.0360631
        k(   55) = (   0.3636364   0.4545455   0.4545455), wk =   0.0360631
        k(   56) = (   0.4545455   0.4545455   0.4545455), wk =   0.0120210

     Dense  grid:    73447 G-vectors     FFT dimensions: (  54,  54,  54)

     Smooth grid:    25821 G-vectors     FFT dimensions: (  40,  40,  40)

     Dynamical RAM for                 wfc:       0.17 MB

     Dynamical RAM for     wfc (w. buffer):       9.43 MB

     Dynamical RAM for           str. fact:       0.37 MB

     Dynamical RAM for           local pot:       0.00 MB

     Dynamical RAM for          nlocal pot:       0.30 MB

     Dynamical RAM for                qrad:       4.97 MB

     Dynamical RAM for          rho,v,vnew:       1.16 MB

     Dynamical RAM for               rhoin:       0.39 MB

     Dynamical RAM for            rho*nmix:       2.99 MB

     Dynamical RAM for           G-vectors:       0.73 MB

     Dynamical RAM for          h,s,v(r/c):       0.07 MB

     Dynamical RAM for          <psi|beta>:       0.01 MB

     Dynamical RAM for                 psi:       0.33 MB

     Dynamical RAM for                hpsi:       0.33 MB

     Dynamical RAM for                spsi:       0.33 MB

     Dynamical RAM for      wfcinit/wfcrot:       0.34 MB

     Dynamical RAM for           addusdens:      34.93 MB

     Dynamical RAM for          addusforce:      35.03 MB

     Dynamical RAM for         addusstress:      37.54 MB

     Estimated static dynamical RAM per process >      18.91 MB

     Estimated max dynamical RAM per process >      59.44 MB

     Estimated total dynamical RAM >     356.66 MB

     Initial potential from superposition of free atoms

     starting charge      31.9992, renormalised to      32.0000
     Starting wfcs are   20 randomized atomic wfcs
     Checking if some PAW data can be deallocated... 
       PAW data deallocated on    3 nodes for type:  1
       PAW data deallocated on    3 nodes for type:  2

     total cpu time spent up to now is        2.1 secs

     Self-consistent Calculation

     iteration #  1     ecut=   120.00 Ry     beta= 0.70
     Davidson diagonalization with overlap

---- Real-time Memory Report at c_bands before calling an iterative solver
            82 MiB given to the printing process from OS
             0 MiB allocation reported by mallinfo(arena+hblkhd)
         20977 MiB available memory on the node where the printing process lives
------------------
     ethr =  1.00E-02,  avg # of iterations =  3.2

     Threshold (ethr) on eigenvalues was too large:
     Diagonalizing with lowered threshold

     Davidson diagonalization with overlap

---- Real-time Memory Report at c_bands before calling an iterative solver
            91 MiB given to the printing process from OS
             0 MiB allocation reported by mallinfo(arena+hblkhd)
         20948 MiB available memory on the node where the printing process lives
------------------
     ethr =  2.20E-04,  avg # of iterations =  2.9

     total cpu time spent up to now is        8.6 secs

     total energy              =    -653.72276411 Ry
     estimated scf accuracy    <       0.09620281 Ry

     iteration #  2     ecut=   120.00 Ry     beta= 0.70
     Davidson diagonalization with overlap

---- Real-time Memory Report at c_bands before calling an iterative solver
            92 MiB given to the printing process from OS
             0 MiB allocation reported by mallinfo(arena+hblkhd)
         20963 MiB available memory on the node where the printing process lives
------------------
     ethr =  3.01E-04,  avg # of iterations =  3.8

     total cpu time spent up to now is       13.8 secs

     total energy              =    -653.71791953 Ry
     estimated scf accuracy    <       0.31243817 Ry

     iteration #  3     ecut=   120.00 Ry     beta= 0.70
     Davidson diagonalization with overlap

---- Real-time Memory Report at c_bands before calling an iterative solver
            92 MiB given to the printing process from OS
             0 MiB allocation reported by mallinfo(arena+hblkhd)
         20964 MiB available memory on the node where the printing process lives
------------------
     ethr =  3.01E-04,  avg # of iterations =  3.3

     total cpu time spent up to now is       18.1 secs

     total energy              =    -653.73791380 Ry
     estimated scf accuracy    <       1.09698781 Ry

     iteration #  4     ecut=   120.00 Ry     beta= 0.70
     Davidson diagonalization with overlap

---- Real-time Memory Report at c_bands before calling an iterative solver
            92 MiB given to the printing process from OS
             0 MiB allocation reported by mallinfo(arena+hblkhd)
         20988 MiB available memory on the node where the printing process lives
------------------
     ethr =  3.01E-04,  avg # of iterations =  1.9

     total cpu time spent up to now is       21.0 secs

     total energy              =    -653.77482817 Ry
     estimated scf accuracy    <       0.00037164 Ry

     iteration #  5     ecut=   120.00 Ry     beta= 0.70
     Davidson diagonalization with overlap

---- Real-time Memory Report at c_bands before calling an iterative solver
            92 MiB given to the printing process from OS
             0 MiB allocation reported by mallinfo(arena+hblkhd)
         20998 MiB available memory on the node where the printing process lives
------------------
     ethr =  1.16E-06,  avg # of iterations =  4.6

     total cpu time spent up to now is       25.4 secs

     total energy              =    -653.77527205 Ry
     estimated scf accuracy    <       0.00090409 Ry

     iteration #  6     ecut=   120.00 Ry     beta= 0.70
     Davidson diagonalization with overlap

---- Real-time Memory Report at c_bands before calling an iterative solver
            92 MiB given to the printing process from OS
             0 MiB allocation reported by mallinfo(arena+hblkhd)
         20986 MiB available memory on the node where the printing process lives
------------------
     ethr =  1.16E-06,  avg # of iterations =  1.0

     total cpu time spent up to now is       28.1 secs

     total energy              =    -653.77527964 Ry
     estimated scf accuracy    <       0.00011575 Ry

     iteration #  7     ecut=   120.00 Ry     beta= 0.70
     Davidson diagonalization with overlap

---- Real-time Memory Report at c_bands before calling an iterative solver
            92 MiB given to the printing process from OS
             0 MiB allocation reported by mallinfo(arena+hblkhd)
         20993 MiB available memory on the node where the printing process lives
------------------
     ethr =  3.62E-07,  avg # of iterations =  1.0

     total cpu time spent up to now is       30.6 secs

     total energy              =    -653.77528106 Ry
     estimated scf accuracy    <       0.00001328 Ry

     iteration #  8     ecut=   120.00 Ry     beta= 0.70
     Davidson diagonalization with overlap

---- Real-time Memory Report at c_bands before calling an iterative solver
            92 MiB given to the printing process from OS
             0 MiB allocation reported by mallinfo(arena+hblkhd)
         20996 MiB available memory on the node where the printing process lives
------------------
     ethr =  4.15E-08,  avg # of iterations =  1.2

     total cpu time spent up to now is       33.3 secs

     total energy              =    -653.77528129 Ry
     estimated scf accuracy    <       0.00000134 Ry

     iteration #  9     ecut=   120.00 Ry     beta= 0.70
     Davidson diagonalization with overlap

---- Real-time Memory Report at c_bands before calling an iterative solver
            92 MiB given to the printing process from OS
             0 MiB allocation reported by mallinfo(arena+hblkhd)
         20999 MiB available memory on the node where the printing process lives
------------------
     ethr =  4.19E-09,  avg # of iterations =  2.3

     total cpu time spent up to now is       36.6 secs

     total energy              =    -653.77528135 Ry
     estimated scf accuracy    <       0.00000004 Ry

     iteration # 10     ecut=   120.00 Ry     beta= 0.70
     Davidson diagonalization with overlap

---- Real-time Memory Report at c_bands before calling an iterative solver
            92 MiB given to the printing process from OS
             0 MiB allocation reported by mallinfo(arena+hblkhd)
         20996 MiB available memory on the node where the printing process lives
------------------
     ethr =  1.29E-10,  avg # of iterations =  2.6

     total cpu time spent up to now is       39.8 secs

     total energy              =    -653.77528136 Ry
     estimated scf accuracy    <       0.00000007 Ry

     iteration # 11     ecut=   120.00 Ry     beta= 0.70
     Davidson diagonalization with overlap

---- Real-time Memory Report at c_bands before calling an iterative solver
            92 MiB given to the printing process from OS
             0 MiB allocation reported by mallinfo(arena+hblkhd)
         20997 MiB available memory on the node where the printing process lives
------------------
     ethr =  1.29E-10,  avg # of iterations =  1.0

     total cpu time spent up to now is       42.3 secs

     total energy              =    -653.77528136 Ry
     estimated scf accuracy    <          3.5E-09 Ry

     iteration # 12     ecut=   120.00 Ry     beta= 0.70
     Davidson diagonalization with overlap

---- Real-time Memory Report at c_bands before calling an iterative solver
            92 MiB given to the printing process from OS
             0 MiB allocation reported by mallinfo(arena+hblkhd)
         21000 MiB available memory on the node where the printing process lives
------------------
     ethr =  1.09E-11,  avg # of iterations =  2.0

     total cpu time spent up to now is       45.5 secs

     total energy              =    -653.77528136 Ry
     estimated scf accuracy    <          1.1E-10 Ry

     iteration # 13     ecut=   120.00 Ry     beta= 0.70
     Davidson diagonalization with overlap

---- Real-time Memory Report at c_bands before calling an iterative solver
            92 MiB given to the printing process from OS
             0 MiB allocation reported by mallinfo(arena+hblkhd)
         20995 MiB available memory on the node where the printing process lives
------------------
     ethr =  3.46E-13,  avg # of iterations =  3.5

     total cpu time spent up to now is       49.5 secs

     End of self-consistent calculation

          k = 0.0000 0.0000 0.0000 (  3239 PWs)   bands (ev):

   -67.6357 -67.4618 -33.8926 -33.8926 -33.8926 -33.5308 -33.5308 -33.5308
    10.4223  14.7760  14.7760  17.5573  17.5573  17.5573  19.2328  19.2328
    20.2950  20.2950  20.2950  29.4233

     occupation numbers 
     1.0000   1.0000   1.0000   1.0000   1.0000   1.0000   1.0000   1.0000
     1.0000   1.0000   1.0000   1.0000   1.0000   1.0000   0.5776   0.5776
     0.0000   0.0000   0.0000   0.0000

          k = 0.0000 0.0000 0.0909 (  3239 PWs)   bands (ev):

   -67.6317 -67.4648 -33.8918 -33.8848 -33.8848 -33.5449 -33.5377 -33.5377
    10.6012  14.8533  14.8596  17.5529  17.5529  17.6095  19.1386  19.2692
    20.1195  20.1195  20.2363  28.3532

     occupation numbers 
     1.0000   1.0000   1.0000   1.0000   1.0000   1.0000   1.0000   1.0000
     1.0000   1.0000   1.0000   1.0000   1.0000   1.0000   0.7533   0.5026
     0.0000   0.0000   0.0000   0.0000

          k = 0.0000 0.0000 0.1818 (  3239 PWs)   bands (ev):

   -67.6200 -67.4736 -33.8881 -33.8623 -33.8623 -33.5844 -33.5579 -33.5579
    11.1247  15.0514  15.1054  17.5504  17.5504  17.7627  18.8637  19.3722
    19.6773  19.6773  20.0657  26.2322

     occupation numbers 
     1.0000   1.0000   1.0000   1.0000   1.0000   1.0000   1.0000   1.0000
     1.0000   1.0000   1.0000   1.0000   1.0000   1.0000   0.9827   0.2985
     0.0172   0.0172   0.0000   0.0000

          k = 0.0000 0.0000 0.2727 (  3222 PWs)   bands (ev):

   -67.6019 -67.4879 -33.8775 -33.8271 -33.8271 -33.6415 -33.5901 -33.5901
    11.9496  15.2633  15.4985  17.5780  17.5780  18.0064  18.4305  19.1307
    19.1307  19.5291  19.7991  24.0397

     occupation numbers 
     1.0000   1.0000   1.0000   1.0000   1.0000   1.0000   1.0000   1.0000
     1.0000   1.0000   1.0000   1.0000   1.0000   1.0000   1.0000   0.7661
     0.7661   0.0894   0.0030   0.0000

          k = 0.0000 0.0000 0.3636 (  3250 PWs)   bands (ev):

   -67.5794 -67.5071 -33.8557 -33.7824 -33.7824 -33.7062 -33.6320 -33.6320
    12.9878  15.2978  16.0134  17.6715  17.6715  17.8770  18.3236  18.6065
    18.6065  19.4607  19.7470  22.1620

     occupation numbers 
     1.0000   1.0000   1.0000   1.0000   1.0000   1.0000   1.0000   1.0000
     1.0000   1.0000   1.0000   1.0000   1.0000   1.0000   1.0000   0.9997
     0.9997   0.1613   0.0066   0.0000

          k = 0.0000 0.0000 0.4545 (  3242 PWs)   bands (ev):

   -67.5546 -67.5298 -33.8192 -33.7681 -33.7321 -33.7321 -33.6806 -33.6806
    14.0709  14.9205  16.6137  17.2528  17.8636  17.8636  18.1750  18.1750
    18.6911  19.0807  20.1103  20.8394

     occupation numbers 
     1.0000   1.0000   1.0000   1.0000   1.0000   1.0000   1.0000   1.0000
     1.0000   1.0000   1.0000   1.0000   1.0000   1.0000   1.0000   1.0000
     0.9987   0.8380   0.0000   0.0000

          k = 0.0000 0.0909 0.0909 (  3235 PWs)   bands (ev):

   -67.6278 -67.4676 -33.9043 -33.8774 -33.8644 -33.5721 -33.5443 -33.5309
    10.7775  14.9331  14.9380  17.4490  17.5395  17.7605  19.1257  19.2415
    19.8273  19.9455  20.3191  28.4309

     occupation numbers 
     1.0000   1.0000   1.0000   1.0000   1.0000   1.0000   1.0000   1.0000
     1.0000   1.0000   1.0000   1.0000   1.0000   1.0000   0.7741   0.5597
     0.0019   0.0002   0.0000   0.0000

          k = 0.0000 0.0909 0.1818 (  3241 PWs)   bands (ev):

   -67.6165 -67.4760 -33.9114 -33.8557 -33.8326 -33.6209 -33.5636 -33.5398
    11.2926  15.1292  15.1759  17.3678  17.5113  17.9901  18.9156  19.3286
    19.3333  19.5155  20.2558  26.4633

     occupation numbers 
     1.0000   1.0000   1.0000   1.0000   1.0000   1.0000   1.0000   1.0000
     1.0000   1.0000   1.0000   1.0000   1.0000   1.0000   0.9674   0.3812
     0.3719   0.1014   0.0000   0.0000

          k = 0.0000 0.0909 0.2727 (  3241 PWs)   bands (ev):

   -67.5991 -67.4897 -33.9083 -33.8218 -33.7926 -33.6827 -33.5944 -33.5644
    12.1010  15.3370  15.5494  17.3456  17.4860  18.2782  18.5660  18.7855
    19.0099  19.4913  20.0484  24.2482

     occupation numbers 
     1.0000   1.0000   1.0000   1.0000   1.0000   1.0000   1.0000   1.0000
     1.0000   1.0000   1.0000   1.0000   1.0000   1.0000   0.9999   0.9941
     0.9121   0.1255   0.0000   0.0000

          k = 0.0000 0.0909 0.3636 (  3262 PWs)   bands (ev):

   -67.5774 -67.5080 -33.8916 -33.7788 -33.7488 -33.7461 -33.6345 -33.6012
    13.1112  15.3584  16.0306  17.4064  17.4145  18.2180  18.2768  18.5793
    18.6181  19.7167  19.7423  22.3192

     occupation numbers 
     1.0000   1.0000   1.0000   1.0000   1.0000   1.0000   1.0000   1.0000
     1.0000   1.0000   1.0000   1.0000   1.0000   1.0000   1.0000   0.9998
     0.9997   0.0102   0.0071   0.0000

          k = 0.0000 0.0909 0.4545 (  3264 PWs)   bands (ev):

   -67.5535 -67.5298 -33.8587 -33.8098 -33.7305 -33.6961 -33.6811 -33.6465
    14.1552  14.9759  16.5737  17.0949  17.5742  17.8647  18.1326  18.2903
    18.9932  19.3785  20.1075  20.9109

     occupation numbers 
     1.0000   1.0000   1.0000   1.0000   1.0000   1.0000   1.0000   1.0000
     1.0000   1.0000   1.0000   1.0000   1.0000   1.0000   1.0000   1.0000
     0.9252   0.2871   0.0000   0.0000

          k = 0.0000 0.1818 0.1818 (  3245 PWs)   bands (ev):

   -67.6064 -67.4832 -33.9355 -33.8364 -33.7885 -33.6819 -33.5803 -33.5310
    11.7796  15.2812  15.4235  17.1666  17.4290  18.3311  18.7804  18.9702
    19.1392  19.2733  20.3841  26.4734

     occupation numbers 
     1.0000   1.0000   1.0000   1.0000   1.0000   1.0000   1.0000   1.0000
     1.0000   1.0000   1.0000   1.0000   1.0000   1.0000   0.9946   0.9406
     0.7523   0.4940   0.0000   0.0000

          k = 0.0000 0.1818 0.2727 (  3233 PWs)   bands (ev):

   -67.5909 -67.4950 -33.9479 -33.8064 -33.7511 -33.7405 -33.6070 -33.5395
    12.5311  15.4186  15.7944  17.0406  17.3536  18.2217  18.7051  18.7632
    18.8234  19.3942  20.3380  24.6519

     occupation numbers 
     1.0000   1.0000   1.0000   1.0000   1.0000   1.0000   1.0000   1.0000
     1.0000   1.0000   1.0000   1.0000   1.0000   1.0000   0.9983   0.9958
     0.9899   0.2600   0.0000   0.0000

          k = 0.0000 0.1818 0.3636 (  3270 PWs)   bands (ev):

   -67.5716 -67.5107 -33.9440 -33.8195 -33.7684 -33.6909 -33.6419 -33.5633
    13.4402  15.3818  16.2249  17.0178  17.2636  17.7330  18.5588  18.6388
    19.0962  19.6276  20.1446  22.6679

     occupation numbers 
     1.0000   1.0000   1.0000   1.0000   1.0000   1.0000   1.0000   1.0000
     1.0000   1.0000   1.0000   1.0000   1.0000   1.0000   0.9999   0.9995
     0.8173   0.0317   0.0000   0.0000

          k = 0.0000 0.1818 0.4545 (  3260 PWs)   bands (ev):

   -67.5505 -67.5297 -33.9209 -33.8783 -33.7259 -33.6826 -33.6426 -33.5988
    14.3357  15.0230  16.6671  17.0444  17.1198  17.3589  18.5375  18.5654
    19.4856  19.8467  20.0911  21.0828

     occupation numbers 
     1.0000   1.0000   1.0000   1.0000   1.0000   1.0000   1.0000   1.0000
     1.0000   1.0000   1.0000   1.0000   1.0000   1.0000   0.9999   0.9999
     0.1317   0.0014   0.0000   0.0000

          k = 0.0000 0.2727 0.2727 (  3243 PWs)   bands (ev):

   -67.5783 -67.5036 -33.9764 -33.8240 -33.7825 -33.6881 -33.6272 -33.5311
    13.1612  15.3831  16.2289  16.8128  17.3308  17.6769  18.5985  18.9965
    19.1452  19.3338  20.4698  24.3605

     occupation numbers 
     1.0000   1.0000   1.0000   1.0000   1.0000   1.0000   1.0000   1.0000
     1.0000   1.0000   1.0000   1.0000   1.0000   1.0000   0.9998   0.9227
     0.7424   0.3710   0.0000   0.0000

          k = 0.0000 0.2727 0.3636 (  3258 PWs)   bands (ev):

   -67.5629 -67.5155 -33.9875 -33.8912 -33.7524 -33.6540 -33.6391 -33.5392
    13.8527  15.2124  16.7000  16.7175  17.2237  17.4280  18.6284  18.9757
    19.4944  19.5666  20.4297  22.8521

     occupation numbers 
     1.0000   1.0000   1.0000   1.0000   1.0000   1.0000   1.0000   1.0000
     1.0000   1.0000   1.0000   1.0000   1.0000   1.0000   0.9996   0.9372
     0.1223   0.0619   0.0000   0.0000

          k = 0.0000 0.2727 0.4545 (  3273 PWs)   bands (ev):

   -67.5463 -67.5300 -33.9771 -33.9442 -33.7191 -33.6853 -33.5960 -33.5617
    14.4543  14.9034  16.7253  16.9005  17.1526  17.4240  18.7937  18.9318
    19.9424  20.0294  20.2420  21.2174

     occupation numbers 
     1.0000   1.0000   1.0000   1.0000   1.0000   1.0000   1.0000   1.0000
     1.0000   1.0000   1.0000   1.0000   1.0000   1.0000   0.9934   0.9608
     0.0002   0.0000   0.0000   0.0000

          k = 0.0000 0.3636 0.3636 (  3251 PWs)   bands (ev):

   -67.5524 -67.5224 -34.0138 -33.9529 -33.7326 -33.6702 -33.5949 -33.5313
    14.2064  14.9594  16.5021  16.8197  17.3450  17.9447  18.7965  19.1472
    19.4094  19.9796  20.5494  22.3148

     occupation numbers 
     1.0000   1.0000   1.0000   1.0000   1.0000   1.0000   1.0000   1.0000
     1.0000   1.0000   1.0000   1.0000   1.0000   1.0000   0.9931   0.7391
     0.2350   0.0001   0.0000   0.0000

          k = 0.0000 0.3636 0.4545 (  3256 PWs)   bands (ev):

   -67.5415 -67.5312 -34.0176 -33.9969 -33.7110 -33.6896 -33.5608 -33.5390
    14.4700  14.7066  16.4501  16.5564  17.9260  18.2561  19.0072  19.1592
    19.8484  20.3012  20.5004  21.0733

     occupation numbers 
     1.0000   1.0000   1.0000   1.0000   1.0000   1.0000   1.0000   1.0000
     1.0000   1.0000   1.0000   1.0000   1.0000   1.0000   0.9144   0.7184
     0.0013   0.0000   0.0000   0.0000

          k = 0.0000 0.4545 0.4545 (  3255 PWs)   bands (ev):

   -67.5370 -67.5335 -34.0360 -34.0289 -33.7029 -33.6955 -33.5389 -33.5314
    14.4775  14.5509  16.3234  16.3590  18.7506  19.1365  19.1551  19.4192
    19.4642  20.4300  20.5270  20.5969

     occupation numbers 
     1.0000   1.0000   1.0000   1.0000   1.0000   1.0000   1.0000   1.0000
     1.0000   1.0000   1.0000   1.0000   0.9966   0.7569   0.7255   0.2197
     0.1570   0.0000   0.0000   0.0000

          k = 0.0909 0.0909 0.0909 (  3242 PWs)   bands (ev):

   -67.6240 -67.4703 -33.8963 -33.8963 -33.8389 -33.5972 -33.5380 -33.5380
    10.9516  15.0137  15.0137  17.4314  17.4314  17.9139  19.1696  19.1696
    19.4397  20.1454  20.1454  28.7597

     occupation numbers 
     1.0000   1.0000   1.0000   1.0000   1.0000   1.0000   1.0000   1.0000
     1.0000   1.0000   1.0000   1.0000   1.0000   1.0000   0.6999   0.6999
     0.1895   0.0000   0.0000   0.0000

          k = 0.0909 0.0909 0.1818 (  3245 PWs)   bands (ev):

   -67.6131 -67.4783 -33.9121 -33.8731 -33.8022 -33.6478 -33.5589 -33.5409
    11.4593  15.2190  15.2350  17.3107  17.3852  18.1834  18.8972  18.9638
    19.2887  19.7135  20.1891  26.7058

     occupation numbers 
     1.0000   1.0000   1.0000   1.0000   1.0000   1.0000   1.0000   1.0000
     1.0000   1.0000   1.0000   1.0000   1.0000   1.0000   0.9738   0.9445
     0.4621   0.0107   0.0000   0.0000

          k = 0.0909 0.0909 0.2727 (  3237 PWs)   bands (ev):

   -67.5963 -67.4914 -33.9168 -33.8367 -33.7605 -33.7102 -33.5922 -33.5583
    12.2531  15.4302  15.5838  17.2649  17.3189  18.3677  18.5086  18.6619
    19.1929  19.4594  20.0604  24.4712

     occupation numbers 
     1.0000   1.0000   1.0000   1.0000   1.0000   1.0000   1.0000   1.0000
     1.0000   1.0000   1.0000   1.0000   1.0000   1.0000   1.0000   0.9992
     0.6565   0.1631   0.0000   0.0000

          k = 0.0909 0.0909 0.3636 (  3246 PWs)   bands (ev):

   -67.5754 -67.5088 -33.9065 -33.7906 -33.7752 -33.7156 -33.6354 -33.5876
    13.2382  15.4398  16.0270  17.2037  17.3247  17.9630  18.3599  18.7173
    18.8706  19.6954  19.8156  22.5098

     occupation numbers 
     1.0000   1.0000   1.0000   1.0000   1.0000   1.0000   1.0000   1.0000
     1.0000   1.0000   1.0000   1.0000   1.0000   1.0000   1.0000   0.9980
     0.9811   0.0136   0.0023   0.0000

          k = 0.0909 0.0909 0.4545 (  3268 PWs)   bands (ev):

   -67.5525 -67.5297 -33.8788 -33.8338 -33.7388 -33.6856 -33.6697 -33.6259
    14.2478  15.0464  16.5100  16.9402  17.4882  17.7015  18.2336  18.3731
    19.2166  19.5211  20.1382  21.0351

     occupation numbers 
     1.0000   1.0000   1.0000   1.0000   1.0000   1.0000   1.0000   1.0000
     1.0000   1.0000   1.0000   1.0000   1.0000   1.0000   1.0000   1.0000
     0.6102   0.0963   0.0000   0.0000

          k = 0.0909 0.1818 0.1818 (  3236 PWs)   bands (ev):

   -67.6034 -67.4852 -33.9269 -33.8643 -33.7591 -33.7030 -33.5724 -33.5387
    11.9421  15.3776  15.4755  17.1305  17.2755  18.3272  18.5358  19.0182
    19.2415  19.4887  20.2109  26.7876

     occupation numbers 
     1.0000   1.0000   1.0000   1.0000   1.0000   1.0000   1.0000   1.0000
     1.0000   1.0000   1.0000   1.0000   1.0000   1.0000   0.9999   0.9050
     0.5598   0.1284   0.0000   0.0000

          k = 0.0909 0.1818 0.2727 (  3247 PWs)   bands (ev):

   -67.5884 -67.4963 -33.9417 -33.8320 -33.7679 -33.7143 -33.6020 -33.5451
    12.6847  15.5344  15.8131  16.9961  17.1857  17.8279  18.8654  18.9430
    19.0754  19.3769  20.1857  24.9251

     occupation numbers 
     1.0000   1.0000   1.0000   1.0000   1.0000   1.0000   1.0000   1.0000
     1.0000   1.0000   1.0000   1.0000   1.0000   1.0000   0.9824   0.9556
     0.8447   0.2901   0.0000   0.0000

          k = 0.0909 0.1818 0.3636 (  3261 PWs)   bands (ev):

   -67.5698 -67.5114 -33.9423 -33.8320 -33.7885 -33.6701 -33.6420 -33.5635
    13.5775  15.5029  16.1780  16.9290  17.1374  17.5081  18.6808  18.7504
    19.3153  19.6555  20.0253  22.9347

     occupation numbers 
     1.0000   1.0000   1.0000   1.0000   1.0000   1.0000   1.0000   1.0000
     1.0000   1.0000   1.0000   1.0000   1.0000   1.0000   0.9989   0.9966
     0.4078   0.0227   0.0000   0.0000

          k = 0.0909 0.1818 0.4545 (  3264 PWs)   bands (ev):

   -67.5496 -67.5296 -33.9240 -33.8862 -33.7393 -33.6890 -33.6286 -33.5922
    14.4510  15.1295  16.5307  16.7997  17.1974  17.3326  18.5824  18.6011
    19.5493  19.7826  20.2744  21.3433

     occupation numbers 
     1.0000   1.0000   1.0000   1.0000   1.0000   1.0000   1.0000   1.0000
     1.0000   1.0000   1.0000   1.0000   1.0000   1.0000   0.9998   0.9997
     0.0737   0.0039   0.0000   0.0000

          k = 0.0909 0.2727 0.2727 (  3254 PWs)   bands (ev):

   -67.5762 -67.5046 -33.9669 -33.8335 -33.8071 -33.6688 -33.6239 -33.5397
    13.3155  15.5034  16.2394  16.7734  17.1445  17.3717  18.8561  19.0229
    19.3282  19.4065  20.2786  24.7149

     occupation numbers 
     1.0000   1.0000   1.0000   1.0000   1.0000   1.0000   1.0000   1.0000
     1.0000   1.0000   1.0000   1.0000   1.0000   1.0000   0.9844   0.9009
     0.3821   0.2397   0.0000   0.0000

          k = 0.0909 0.2727 0.3636 (  3254 PWs)   bands (ev):

   -67.5614 -67.5159 -33.9791 -33.8948 -33.7718 -33.6545 -33.6273 -33.5463
    14.0018  15.3339  16.6505  16.6549  17.0922  17.2308  18.7762  18.9838
    19.4534  19.9101  20.2184  23.2292

     occupation numbers 
     1.0000   1.0000   1.0000   1.0000   1.0000   1.0000   1.0000   1.0000
     1.0000   1.0000   1.0000   1.0000   1.0000   1.0000   0.9949   0.9318
     0.1708   0.0004   0.0000   0.0000

          k = 0.0909 0.2727 0.4545 (  3250 PWs)   bands (ev):

   -67.5454 -67.5298 -33.9718 -33.9429 -33.7318 -33.6914 -33.5919 -33.5642
    14.5890  15.0260  16.6437  16.7163  17.1846  17.3117  18.8460  18.9279
    19.6835  19.9955  20.5742  21.6684

     occupation numbers 
     1.0000   1.0000   1.0000   1.0000   1.0000   1.0000   1.0000   1.0000
     1.0000   1.0000   1.0000   1.0000   1.0000   1.0000   0.9863   0.9625
     0.0159   0.0001   0.0000   0.0000

          k = 0.0909 0.3636 0.3636 (  3246 PWs)   bands (ev):

   -67.5513 -67.5224 -34.0036 -33.9505 -33.7478 -33.6725 -33.5914 -33.5406
    14.3554  15.0783  16.4704  16.7231  17.2836  17.6553  18.8880  19.1476
    19.4125  20.2572  20.3753  22.8319

     occupation numbers 
     1.0000   1.0000   1.0000   1.0000   1.0000   1.0000   1.0000   1.0000
     1.0000   1.0000   1.0000   1.0000   1.0000   1.0000   0.9766   0.7384
     0.2301   0.0000   0.0000   0.0000

          k = 0.0909 0.3636 0.4545 (  3259 PWs)   bands (ev):

   -67.5407 -67.5308 -34.0083 -33.9901 -33.7212 -33.6952 -33.5642 -33.5469
    14.6064  14.8307  16.4155  16.5026  17.8050  18.0076  19.0477  19.1540
    19.6183  20.0514  20.9254  21.7963

     occupation numbers 
     1.0000   1.0000   1.0000   1.0000   1.0000   1.0000   1.0000   1.0000
     1.0000   1.0000   1.0000   1.0000   1.0000   1.0000   0.8765   0.7275
     0.0353   0.0000   0.0000   0.0000

          k = 0.0909 0.4545 0.4545 (  3241 PWs)   bands (ev):

   -67.5364 -67.5330 -34.0253 -34.0191 -33.7104 -33.7015 -33.5471 -33.5412
    14.6085  14.6771  16.2992  16.3301  18.5192  18.7460  19.1845  19.2360
    19.4678  19.8177  21.2598  21.5996

     occupation numbers 
     1.0000   1.0000   1.0000   1.0000   1.0000   1.0000   1.0000   1.0000
     1.0000   1.0000   1.0000   1.0000   1.0000   0.9968   0.6724   0.5710
     0.1525   0.0022   0.0000   0.0000

          k = 0.1818 0.1818 0.1818 (  3239 PWs)   bands (ev):

   -67.5946 -67.4910 -33.9019 -33.9019 -33.7512 -33.7156 -33.5614 -33.5614
    12.4101  15.6240  15.6240  17.0329  17.0329  17.7321  18.9442  19.1487
    19.1487  19.8009  19.8009  27.6186

     occupation numbers 
     1.0000   1.0000   1.0000   1.0000   1.0000   1.0000   1.0000   1.0000
     1.0000   1.0000   1.0000   1.0000   1.0000   1.0000   0.9550   0.7365
     0.7365   0.0029   0.0029   0.0000

          k = 0.1818 0.1818 0.2727 (  3254 PWs)   bands (ev):

   -67.5812 -67.5005 -33.9302 -33.8626 -33.8088 -33.6739 -33.5976 -33.5582
    13.1201  15.8463  15.8564  16.8854  16.8977  17.2713  19.0083  19.3159
    19.3457  19.4231  19.9202  25.5469

     occupation numbers 
     1.0000   1.0000   1.0000   1.0000   1.0000   1.0000   1.0000   1.0000
     1.0000   1.0000   1.0000   1.0000   1.0000   1.0000   0.9135   0.4066
     0.3478   0.2138   0.0004   0.0000

          k = 0.1818 0.1818 0.3636 (  3238 PWs)   bands (ev):

   -67.5647 -67.5135 -33.9429 -33.8643 -33.8128 -33.6446 -33.6365 -33.5648
    13.9492  15.7669  16.1053  16.7437  16.9027  17.1488  18.8557  18.9820
    19.4702  19.8687  19.9878  23.5301

     occupation numbers 
     1.0000   1.0000   1.0000   1.0000   1.0000   1.0000   1.0000   1.0000
     1.0000   1.0000   1.0000   1.0000   1.0000   1.0000   0.9844   0.9331
     0.1496   0.0009   0.0001   0.0000

          k = 0.1818 0.1818 0.4545 (  3252 PWs)   bands (ev):

   -67.5468 -67.5293 -33.9361 -33.9089 -33.7567 -33.6991 -33.6050 -33.5808
    14.7274  15.3418  16.3565  16.5690  17.0621  17.1797  18.7544  18.7808
    19.5917  19.7269  20.7556  21.9026

     occupation numbers 
     1.0000   1.0000   1.0000   1.0000   1.0000   1.0000   1.0000   1.0000
     1.0000   1.0000   1.0000   1.0000   1.0000   1.0000   0.9963   0.9945
     0.0475   0.0088   0.0000   0.0000

          k = 0.1818 0.2727 0.2727 (  3244 PWs)   bands (ev):

   -67.5703 -67.5075 -33.9395 -33.8586 -33.8527 -33.6374 -33.6154 -33.5648
    13.7517  15.8365  16.2638  16.6703  16.7986  16.8480  19.1234  19.2365
    19.3079  19.8782  19.9553  25.6066

     occupation numbers 
     1.0000   1.0000   1.0000   1.0000   1.0000   1.0000   1.0000   1.0000
     1.0000   1.0000   1.0000   1.0000   1.0000   1.0000   0.7776   0.5700
     0.4228   0.0008   0.0002   0.0000

          k = 0.1818 0.2727 0.3636 (  3238 PWs)   bands (ev):

   -67.5571 -67.5172 -33.9561 -33.9056 -33.8108 -33.6550 -33.6080 -33.5666
    14.4176  15.6586  16.4379  16.5444  16.8403  16.8796  19.0555  19.0735
    19.4347  19.8546  20.5552  24.0736

     occupation numbers 
     1.0000   1.0000   1.0000   1.0000   1.0000   1.0000   1.0000   1.0000
     1.0000   1.0000   1.0000   1.0000   1.0000   1.0000   0.8680   0.8470
     0.1966   0.0012   0.0000   0.0000

          k = 0.1818 0.2727 0.4545 (  3258 PWs)   bands (ev):

   -67.5429 -67.5293 -33.9582 -33.9408 -33.7588 -33.7049 -33.5866 -33.5730
    14.9494  15.3421  16.4364  16.4703  17.0275  17.0848  18.9899  19.0073
    19.5753  19.7278  21.3382  22.4963

     occupation numbers 
     1.0000   1.0000   1.0000   1.0000   1.0000   1.0000   1.0000   1.0000
     1.0000   1.0000   1.0000   1.0000   1.0000   1.0000   0.9276   0.9143
     0.0565   0.0087   0.0000   0.0000

          k = 0.1818 0.3636 0.3636 (  3249 PWs)   bands (ev):

   -67.5480 -67.5227 -33.9740 -33.9444 -33.7844 -33.6768 -33.5879 -33.5680
    14.7780  15.3966  16.3904  16.5151  17.1051  17.1058  19.0934  19.2083
    19.4188  19.8376  21.1714  23.9171

     occupation numbers 
     1.0000   1.0000   1.0000   1.0000   1.0000   1.0000   1.0000   1.0000
     1.0000   1.0000   1.0000   1.0000   1.0000   1.0000   0.8213   0.6266
     0.2204   0.0016   0.0000   0.0000

          k = 0.1818 0.3636 0.4545 (  3253 PWs)   bands (ev):

   -67.5386 -67.5299 -33.9813 -33.9714 -33.7473 -33.7091 -33.5758 -33.5701
    14.9865  15.1677  16.3325  16.3818  17.4639  17.4700  19.1581  19.2051
    19.5190  19.6990  21.9154  22.9142

     occupation numbers 
     1.0000   1.0000   1.0000   1.0000   1.0000   1.0000   1.0000   1.0000
     1.0000   1.0000   1.0000   1.0000   1.0000   1.0000   0.7203   0.6328
     0.0982   0.0130   0.0000   0.0000

          k = 0.1818 0.4545 0.4545 (  3251 PWs)   bands (ev):

   -67.5347 -67.5317 -33.9944 -33.9911 -33.7309 -33.7171 -33.5712 -33.5699
    14.9743  15.0265  16.2400  16.2618  17.9341  17.9498  19.2623  19.2866
    19.4774  19.5749  22.4686  22.9017

     occupation numbers 
     1.0000   1.0000   1.0000   1.0000   1.0000   1.0000   1.0000   1.0000
     1.0000   1.0000   1.0000   1.0000   1.0000   1.0000   0.5168   0.4666
     0.1411   0.0568   0.0000   0.0000

          k = 0.2727 0.2727 0.2727 (  3257 PWs)   bands (ev):

   -67.5614 -67.5125 -33.8965 -33.8965 -33.8911 -33.6117 -33.6048 -33.6048
    14.3749  16.2867  16.2867  16.3550  16.5403  16.5403  19.2680  19.2680
    19.5041  19.5041  20.5904  26.8010

     occupation numbers 
     1.0000   1.0000   1.0000   1.0000   1.0000   1.0000   1.0000   1.0000
     1.0000   1.0000   1.0000   1.0000   1.0000   1.0000   0.5050   0.5050
     0.1123   0.1123   0.0000   0.0000

          k = 0.2727 0.2727 0.3636 (  3252 PWs)   bands (ev):

   -67.5507 -67.5197 -33.9290 -33.9215 -33.8418 -33.6567 -33.5953 -33.5950
    14.9793  15.9288  16.2983  16.4230  16.5299  16.7296  19.2130  19.2625
    19.4141  19.6154  21.2871  25.0057

     occupation numbers 
     1.0000   1.0000   1.0000   1.0000   1.0000   1.0000   1.0000   1.0000
     1.0000   1.0000   1.0000   1.0000   1.0000   1.0000   0.6173   0.5165
     0.2277   0.0365   0.0000   0.0000

          k = 0.2727 0.2727 0.4545 (  3261 PWs)   bands (ev):

   -67.5394 -67.5288 -33.9446 -33.9413 -33.7801 -33.7167 -33.5886 -33.5881
    15.3562  15.6159  16.3092  16.3447  16.7812  16.9292  19.1630  19.1643
    19.5266  19.6014  22.1583  23.3797

     occupation numbers 
     1.0000   1.0000   1.0000   1.0000   1.0000   1.0000   1.0000   1.0000
     1.0000   1.0000   1.0000   1.0000   1.0000   1.0000   0.7116   0.7093
     0.0915   0.0427   0.0000   0.0000

          k = 0.2727 0.3636 0.3636 (  3261 PWs)   bands (ev):

   -67.5432 -67.5235 -33.9371 -33.9275 -33.8280 -33.6770 -33.6114 -33.5922
    15.3941  15.7518  16.2994  16.3884  16.5891  16.8463  19.3017  19.3117
    19.4216  19.5689  22.0667  25.2460

     occupation numbers 
     1.0000   1.0000   1.0000   1.0000   1.0000   1.0000   1.0000   1.0000
     1.0000   1.0000   1.0000   1.0000   1.0000   1.0000   0.4354   0.4152
     0.2161   0.0604   0.0000   0.0000

          k = 0.2727 0.3636 0.4545 (  3257 PWs)   bands (ev):

   -67.5357 -67.5289 -33.9453 -33.9412 -33.7792 -33.7240 -33.6065 -33.5972
    15.5078  15.5869  16.2575  16.3015  16.9267  17.0541  19.2959  19.3077
    19.4941  19.5505  22.9804  24.1376

     occupation numbers 
     1.0000   1.0000   1.0000   1.0000   1.0000   1.0000   1.0000   1.0000
     1.0000   1.0000   1.0000   1.0000   1.0000   1.0000   0.4473   0.4231
     0.1226   0.0727   0.0000   0.0000

          k = 0.2727 0.4545 0.4545 (  3247 PWs)   bands (ev):

   -67.5324 -67.5301 -33.9482 -33.9459 -33.7585 -33.7360 -33.6153 -33.6095
    15.4896  15.5034  16.1815  16.2070  17.2673  17.3147  19.3624  19.3715
    19.4893  19.5155  23.7905  24.3624

     occupation numbers 
     1.0000   1.0000   1.0000   1.0000   1.0000   1.0000   1.0000   1.0000
     1.0000   1.0000   1.0000   1.0000   1.0000   1.0000   0.3164   0.2997
     0.1276   0.1014   0.0000   0.0000

          k = 0.3636 0.3636 0.3636 (  3253 PWs)   bands (ev):

   -67.5378 -67.5254 -33.9296 -33.8683 -33.8683 -33.6678 -33.6678 -33.6060
    15.8363  16.0130  16.2430  16.2430  16.5798  16.5798  19.4168  19.4168
    19.4452  19.4452  23.0056  26.7363

     occupation numbers 
     1.0000   1.0000   1.0000   1.0000   1.0000   1.0000   1.0000   1.0000
     1.0000   1.0000   1.0000   1.0000   1.0000   1.0000   0.2234   0.2234
     0.1819   0.1819   0.0000   0.0000

          k = 0.3636 0.3636 0.4545 (  3246 PWs)   bands (ev):

   -67.5327 -67.5284 -33.9186 -33.8991 -33.8016 -33.7328 -33.6494 -33.6268
    15.8264  15.9190  16.2600  16.3730  16.6014  16.7600  19.4073  19.4075
    19.4881  19.5033  24.0586  25.3337

     occupation numbers 
     1.0000   1.0000   1.0000   1.0000   1.0000   1.0000   1.0000   1.0000
     1.0000   1.0000   1.0000   1.0000   1.0000   1.0000   0.2384   0.2382
     0.1290   0.1131   0.0000   0.0000

          k = 0.3636 0.4545 0.4545 (  3241 PWs)   bands (ev):

   -67.5302 -67.5287 -33.8969 -33.8841 -33.7870 -33.7487 -33.6743 -33.6579
    15.9098  16.0034  16.1700  16.2691  16.7522  16.8108  19.4527  19.4540
    19.4996  19.5047  25.1456  25.9529

     occupation numbers 
     1.0000   1.0000   1.0000   1.0000   1.0000   1.0000   1.0000   1.0000
     1.0000   1.0000   1.0000   1.0000   1.0000   1.0000   0.1718   0.1701
     0.1168   0.1117   0.0000   0.0000

          k = 0.4545 0.4545 0.4545 (  3244 PWs)   bands (ev):

   -67.5287 -67.5282 -33.8486 -33.8143 -33.8143 -33.7425 -33.7425 -33.7080
    16.1007  16.2500  16.2500  16.4566  16.4566  16.4908  19.5050  19.5050
    19.5053  19.5053  26.4874  27.6554

     occupation numbers 
     1.0000   1.0000   1.0000   1.0000   1.0000   1.0000   1.0000   1.0000
     1.0000   1.0000   1.0000   1.0000   1.0000   1.0000   0.1114   0.1114
     0.1111   0.1111   0.0000   0.0000

     the Fermi energy is    19.2704 ev

!    total energy              =    -653.77528136 Ry
     total all-electron energy =     -5086.426700 Ry
     estimated scf accuracy    <          1.0E-11 Ry
     smearing contrib. (-TS)   =      -0.01844121 Ry
     internal energy E=F+TS    =    -653.75684014 Ry

     The total energy is F=E-TS. E is the sum of the following terms:
     one-electron contribution =    -210.40192956 Ry
     hartree contribution      =     126.23384902 Ry
     xc contribution           =     -54.66869277 Ry
     ewald contribution        =    -353.46245192 Ry
     one-center paw contrib.   =    -161.45761491 Ry
      -> PAW hartree energy AE =     182.55019483 Ry
      -> PAW hartree energy PS =    -181.25186286 Ry
      -> PAW xc energy AE      =    -107.62275634 Ry
      -> PAW xc energy PS      =      25.59561678 Ry
      -> total E_H with PAW    =     127.53218099 Ry
      -> total E_XC with PAW   =    -136.69583233 Ry

     convergence has been achieved in  13 iterations

     Forces acting on atoms (cartesian axes, Ry/au):

     atom    1 type  1   force =     0.00000000    0.00000000    0.00000000
     atom    2 type  2   force =     0.00000000    0.00000000    0.00000000
     The non-local contrib.  to forces
     atom    1 type  1   force =     0.00000000    0.00000000    0.00000000
     atom    2 type  2   force =     0.00000000    0.00000000    0.00000000
     The ionic contribution  to forces
     atom    1 type  1   force =    -0.00000000   -0.00000000   -0.00000000
     atom    2 type  2   force =     0.00000000    0.00000000    0.00000000
     The local contribution  to forces
     atom    1 type  1   force =     0.00000000    0.00000000    0.00000000
     atom    2 type  2   force =     0.00000000    0.00000000    0.00000000
     The core correction contribution to forces
     atom    1 type  1   force =     0.00000000    0.00000000   -0.00000000
     atom    2 type  2   force =    -0.00000000    0.00000000   -0.00000000
     The Hubbard contrib.    to forces
     atom    1 type  1   force =     0.00000000    0.00000000    0.00000000
     atom    2 type  2   force =     0.00000000    0.00000000    0.00000000
     The SCF correction term to forces
     atom    1 type  1   force =     0.00000000    0.00000000   -0.00000000
     atom    2 type  2   force =    -0.00000000    0.00000000    0.00000000

     Total force =     0.000000     Total SCF correction =     0.000000


     Computing stress (Cartesian axis) and pressure

          total   stress  (Ry/bohr**3)                   (kbar)     P=     -169.86
  -0.00115471   0.00000000   0.00000000         -169.86        0.00        0.00
   0.00000000  -0.00115471   0.00000000            0.00     -169.86        0.00
   0.00000000   0.00000000  -0.00115471            0.00        0.00     -169.86

     kinetic stress (kbar) 103689.75      0.00      0.00
                                0.00 103689.75      0.00
                                0.00      0.00 103689.75

     local   stress (kbar)  17425.63      0.00     -0.00
                                0.00  17425.63      0.00
                               -0.00      0.00  17425.63

     nonloc. stress (kbar) -27814.61      0.00      0.00
                                0.00 -27814.61      0.00
                                0.00      0.00 -27814.61

     hartree stress (kbar)  42254.45     -0.00      0.00
                               -0.00  42254.45     -0.00
                                0.00     -0.00  42254.45

     exc-cor stress (kbar) -14577.60     -0.00      0.00
                               -0.00 -14577.60      0.00
                                0.00      0.00 -14577.60

     corecor stress (kbar)  -2832.45      0.00     -0.00
                                0.00  -2832.45      0.00
                               -0.00      0.00  -2832.45

     ewald   stress (kbar)-118315.03      0.00     -0.00
                                0.00-118315.03     -0.00
                               -0.00     -0.00-118315.03

     hubbard stress (kbar)      0.00      0.00      0.00
                                0.00      0.00      0.00
                                0.00      0.00      0.00

     DFT-D   stress (kbar)      0.00      0.00      0.00
                                0.00      0.00      0.00
                                0.00      0.00      0.00

     XDM     stress (kbar)      0.00      0.00      0.00
                                0.00      0.00      0.00
                                0.00      0.00      0.00

     dft-nl  stress (kbar)      0.00      0.00      0.00
                                0.00      0.00      0.00
                                0.00      0.00      0.00

     TS-vdW  stress (kbar)      0.00      0.00      0.00
                                0.00      0.00      0.00
                                0.00      0.00      0.00

     MDB     stress (kbar)      0.00      0.00      0.00
                                0.00      0.00      0.00
                                0.00      0.00      0.00

     3D-RISM stress (kbar)      0.00      0.00      0.00
                                0.00      0.00      0.00
                                0.00      0.00      0.00


     Writing all to output data dir ./temp/fe-nm.save/ :
     XML data file, charge density, pseudopotentials, collected wavefunctions

     init_run     :      1.62s CPU      1.81s WALL (       1 calls)
     electrons    :     42.79s CPU     47.39s WALL (       1 calls)
     forces       :      0.56s CPU      0.60s WALL (       1 calls)
     stress       :      2.18s CPU      2.35s WALL (       1 calls)

     Called by init_run:
     wfcinit      :      0.74s CPU      0.79s WALL (       1 calls)
     wfcinit:atom :      0.01s CPU      0.01s WALL (      56 calls)
     wfcinit:wfcr :      0.68s CPU      0.73s WALL (      56 calls)
     potinit      :      0.28s CPU      0.31s WALL (       1 calls)
     hinit0       :      0.40s CPU      0.47s WALL (       1 calls)

     Called by electrons:
     c_bands      :     34.12s CPU     37.88s WALL (      14 calls)
     sum_band     :      6.15s CPU      6.71s WALL (      14 calls)
     v_of_rho     :      0.24s CPU      0.27s WALL (      14 calls)
     v_h          :      0.01s CPU      0.02s WALL (      14 calls)
     v_xc         :      0.25s CPU      0.30s WALL (      16 calls)
     newd         :      1.33s CPU      1.43s WALL (      14 calls)
     PAW_pot      :      1.07s CPU      1.22s WALL (      14 calls)
     mix_rho      :      0.03s CPU      0.04s WALL (      14 calls)

     Called by c_bands:
     init_us_2    :      0.46s CPU      0.49s WALL (    1736 calls)
     cegterg      :     32.99s CPU     36.65s WALL (     784 calls)

     Called by sum_band:
     sum_band:wei :      0.01s CPU      0.01s WALL (      14 calls)
     sum_band:loo :      4.65s CPU      5.07s WALL (      14 calls)
     sum_band:buf :      0.04s CPU      0.05s WALL (     784 calls)
     sum_band:ini :      0.20s CPU      0.21s WALL (     784 calls)
     sum_band:cal :      1.06s CPU      1.13s WALL (     784 calls)
     sum_band:bec :      0.02s CPU      0.02s WALL (     784 calls)
     addusdens    :      1.34s CPU      1.47s WALL (      14 calls)
                                        0.00s GPU  (      14 calls)
     addusd:skk   :      0.00s CPU      0.00s WALL (      28 calls)
                                        0.00s GPU  (      28 calls)

     Called by *egterg:
     cdiaghg      :      1.72s CPU      1.87s WALL (    2639 calls)
     cegterg:over :      3.37s CPU      3.63s WALL (    1911 calls)
     cegterg:upda :      1.34s CPU      1.43s WALL (    1911 calls)
     cegterg:last :      3.02s CPU      3.27s WALL (    1442 calls)
     h_psi        :     19.63s CPU     22.30s WALL (    2751 calls)
     s_psi        :      1.99s CPU      2.11s WALL (    2751 calls)
     g_psi        :      0.12s CPU      0.13s WALL (    1911 calls)

     Called by h_psi:
     h_psi:calbec :      2.64s CPU      2.93s WALL (    2751 calls)
     vloc_psi     :     14.88s CPU     17.09s WALL (    2751 calls)
     add_vuspsi   :      2.02s CPU      2.19s WALL (    2751 calls)

     General routines
     calbec       :      4.34s CPU      4.73s WALL (    3815 calls)
     fft          :      0.29s CPU      0.34s WALL (     206 calls)
     ffts         :      0.17s CPU      0.18s WALL (      28 calls)
     fftw         :     15.44s CPU     17.66s WALL (   92286 calls)
     interpolate  :      0.18s CPU      0.19s WALL (      14 calls)

     Parallel routines

     PAW routines
     PAW_pot      :      1.07s CPU      1.22s WALL (      14 calls)
     PAW_symme    :      0.02s CPU      0.02s WALL (      28 calls)

     PWSCF        :     47.48s CPU     52.60s WALL


   This run was terminated on:  15:18:14  11Dec2025            

=------------------------------------------------------------------------------=
   JOB DONE.
=------------------------------------------------------------------------------=
