
     Program PWSCF v.7.3.1 starts on 12Dec2025 at  6:37:18 

     This program is part of the open-source Quantum ESPRESSO suite
     for quantum simulation of materials; please cite
         "P. Giannozzi et al., J. Phys.:Condens. Matter 21 395502 (2009);
         "P. Giannozzi et al., J. Phys.:Condens. Matter 29 465901 (2017);
         "P. Giannozzi et al., J. Chem. Phys. 152 154105 (2020);
          URL http://www.quantum-espresso.org", 
     in publications or presentations arising from this work. More details at
     http://www.quantum-espresso.org/quote

     Parallel version (MPI), running on     6 processors

     MPI processes distributed on     1 nodes
     18780 MiB available memory on the printing compute node when the environment starts

     Reading input from nscf.in

     Current dimensions of program PWSCF are:
     Max number of different atomic species (ntypx) = 10
     Max number of k-points (npk) =  40000
     Max angular momentum in pseudopotentials (lmaxx) =  4
     file Fe.pbesol-spn-kjpaw_psl.1.0.0.UPF: wavefunction(s)  3P 3D renormalized
     file Fe.pbesol-spn-kjpaw_psl.1.0.0.UPF: wavefunction(s)  3P 3D renormalized

     Atomic positions and unit cell read from directory:
     ./temp/fe.save/


     R & G space division:  proc/nbgrp/npool/nimage =       6
     Subspace diagonalization in iterative solution of the eigenvalue problem:
     a serial algorithm will be used


     Parallelization info
     --------------------
     sticks:   dense  smooth     PW     G-vecs:    dense   smooth      PW
     Min         351     175     50                12240     4303     688
     Max         352     179     52                12242     4304     691
     Sum        2109    1057    305                73447    25821    4139

     Using Slab Decomposition



     bravais-lattice index     =            1
     lattice parameter (alat)  =       5.2715  a.u.
     unit-cell volume          =     146.4906 (a.u.)^3
     number of atoms/cell      =            2
     number of atomic types    =            2
     number of electrons       =        32.00
     number of Kohn-Sham states=           20
     kinetic-energy cutoff     =     120.0000  Ry
     charge density cutoff     =     960.0000  Ry
     Exchange-correlation= SLA  PW   PSX  PSC
                           (   1   4  10   8   0   0   0)

     celldm(1)=   5.271529  celldm(2)=   0.000000  celldm(3)=   0.000000
     celldm(4)=   0.000000  celldm(5)=   0.000000  celldm(6)=   0.000000

     crystal axes: (cart. coord. in units of alat)
               a(1) = (   1.000000   0.000000   0.000000 )  
               a(2) = (   0.000000   1.000000   0.000000 )  
               a(3) = (   0.000000   0.000000   1.000000 )  

     reciprocal axes: (cart. coord. in units 2 pi/alat)
               b(1) = (  1.000000  0.000000  0.000000 )  
               b(2) = (  0.000000  1.000000  0.000000 )  
               b(3) = (  0.000000  0.000000  1.000000 )  


     PseudoPot. # 1 for Fe read from file:
     ./../../pseudos/Fe.pbesol-spn-kjpaw_psl.1.0.0.UPF
     MD5 check sum: e30d5f36a6f0cb983ee41abee56170da
     Pseudo is Projector augmented-wave + core cor, Zval = 16.0
     Generated using &quot;atomic&quot; code by A. Dal Corso  v.6.3
     Shape of augmentation charge: PSQ
     Using radial grid of 1191 points,  6 beta functions with: 
                l(1) =   0
                l(2) =   0
                l(3) =   1
                l(4) =   1
                l(5) =   2
                l(6) =   2
     Q(r) pseudized with 0 coefficients 


     PseudoPot. # 2 for Fe read from file:
     ./../../pseudos/Fe.pbesol-spn-kjpaw_psl.1.0.0.UPF
     MD5 check sum: e30d5f36a6f0cb983ee41abee56170da
     Pseudo is Projector augmented-wave + core cor, Zval = 16.0
     Generated using &quot;atomic&quot; code by A. Dal Corso  v.6.3
     Shape of augmentation charge: PSQ
     Using radial grid of 1191 points,  6 beta functions with: 
                l(1) =   0
                l(2) =   0
                l(3) =   1
                l(4) =   1
                l(5) =   2
                l(6) =   2
     Q(r) pseudized with 0 coefficients 


     atomic species   valence    mass     pseudopotential
     Fe1              16.00    55.84500     Fe( 1.00)
     Fe2              16.00    55.84500     Fe( 1.00)

     Starting magnetic structure 
     atomic species   magnetization
     Fe1             0.300
     Fe2             0.300

     No symmetry found


                                    s                        frac. trans.

      isym =  1     identity                                     

 cryst.   s( 1) = (     1          0          0      )
                  (     0          1          0      )
                  (     0          0          1      )

 cart.    s( 1) = (  1.0000000  0.0000000  0.0000000 )
                  (  0.0000000  1.0000000  0.0000000 )
                  (  0.0000000  0.0000000  1.0000000 )


     point group C_1 (1)    
     there are  1 classes
     the character table:

       E    
A      1.00

     the symmetry operations in each class and the name of the first element:

     E        1
          identity                                               

   Cartesian axes

     site n.     atom                  positions (alat units)
         1        Fe1    tau(   1) = (   0.0000000   0.0000000   0.0000000  )
         2        Fe2    tau(   2) = (   0.5000000   0.5000000   0.5000000  )

   Crystallographic axes

     site n.     atom                  positions (cryst. coord.)
         1        Fe1    tau(   1) = (  0.0000000  0.0000000  0.0000000  )
         2        Fe2    tau(   2) = (  0.5000000  0.5000000  0.5000000  )

     number of k points=  1688 (tetrahedron method)
                       cart. coord. in units 2pi/alat
        k(    1) = (   0.0000000   0.0000000   0.0000000), wk =   0.0002963
        k(    2) = (   0.0000000   0.0000000   0.0666667), wk =   0.0005926
        k(    3) = (   0.0000000   0.0000000   0.1333333), wk =   0.0005926
        k(    4) = (   0.0000000   0.0000000   0.2000000), wk =   0.0005926
        k(    5) = (   0.0000000   0.0000000   0.2666667), wk =   0.0005926
        k(    6) = (   0.0000000   0.0000000   0.3333333), wk =   0.0005926
        k(    7) = (   0.0000000   0.0000000   0.4000000), wk =   0.0005926
        k(    8) = (   0.0000000   0.0000000   0.4666667), wk =   0.0005926
        k(    9) = (   0.0000000   0.0666667   0.0000000), wk =   0.0005926
        k(   10) = (   0.0000000   0.0666667   0.0666667), wk =   0.0005926
        k(   11) = (   0.0000000   0.0666667   0.1333333), wk =   0.0005926
        k(   12) = (   0.0000000   0.0666667   0.2000000), wk =   0.0005926
        k(   13) = (   0.0000000   0.0666667   0.2666667), wk =   0.0005926
        k(   14) = (   0.0000000   0.0666667   0.3333333), wk =   0.0005926
        k(   15) = (   0.0000000   0.0666667   0.4000000), wk =   0.0005926
        k(   16) = (   0.0000000   0.0666667   0.4666667), wk =   0.0005926
        k(   17) = (   0.0000000   0.0666667  -0.4666667), wk =   0.0005926
        k(   18) = (   0.0000000   0.0666667  -0.4000000), wk =   0.0005926
        k(   19) = (   0.0000000   0.0666667  -0.3333333), wk =   0.0005926
        k(   20) = (   0.0000000   0.0666667  -0.2666667), wk =   0.0005926
        k(   21) = (   0.0000000   0.0666667  -0.2000000), wk =   0.0005926
        k(   22) = (   0.0000000   0.0666667  -0.1333333), wk =   0.0005926
        k(   23) = (   0.0000000   0.0666667  -0.0666667), wk =   0.0005926
        k(   24) = (   0.0000000   0.1333333   0.0000000), wk =   0.0005926
        k(   25) = (   0.0000000   0.1333333   0.0666667), wk =   0.0005926
        k(   26) = (   0.0000000   0.1333333   0.1333333), wk =   0.0005926
        k(   27) = (   0.0000000   0.1333333   0.2000000), wk =   0.0005926
        k(   28) = (   0.0000000   0.1333333   0.2666667), wk =   0.0005926
        k(   29) = (   0.0000000   0.1333333   0.3333333), wk =   0.0005926
        k(   30) = (   0.0000000   0.1333333   0.4000000), wk =   0.0005926
        k(   31) = (   0.0000000   0.1333333   0.4666667), wk =   0.0005926
        k(   32) = (   0.0000000   0.1333333  -0.4666667), wk =   0.0005926
        k(   33) = (   0.0000000   0.1333333  -0.4000000), wk =   0.0005926
        k(   34) = (   0.0000000   0.1333333  -0.3333333), wk =   0.0005926
        k(   35) = (   0.0000000   0.1333333  -0.2666667), wk =   0.0005926
        k(   36) = (   0.0000000   0.1333333  -0.2000000), wk =   0.0005926
        k(   37) = (   0.0000000   0.1333333  -0.1333333), wk =   0.0005926
        k(   38) = (   0.0000000   0.1333333  -0.0666667), wk =   0.0005926
        k(   39) = (   0.0000000   0.2000000   0.0000000), wk =   0.0005926
        k(   40) = (   0.0000000   0.2000000   0.0666667), wk =   0.0005926
        k(   41) = (   0.0000000   0.2000000   0.1333333), wk =   0.0005926
        k(   42) = (   0.0000000   0.2000000   0.2000000), wk =   0.0005926
        k(   43) = (   0.0000000   0.2000000   0.2666667), wk =   0.0005926
        k(   44) = (   0.0000000   0.2000000   0.3333333), wk =   0.0005926
        k(   45) = (   0.0000000   0.2000000   0.4000000), wk =   0.0005926
        k(   46) = (   0.0000000   0.2000000   0.4666667), wk =   0.0005926
        k(   47) = (   0.0000000   0.2000000  -0.4666667), wk =   0.0005926
        k(   48) = (   0.0000000   0.2000000  -0.4000000), wk =   0.0005926
        k(   49) = (   0.0000000   0.2000000  -0.3333333), wk =   0.0005926
        k(   50) = (   0.0000000   0.2000000  -0.2666667), wk =   0.0005926
        k(   51) = (   0.0000000   0.2000000  -0.2000000), wk =   0.0005926
        k(   52) = (   0.0000000   0.2000000  -0.1333333), wk =   0.0005926
        k(   53) = (   0.0000000   0.2000000  -0.0666667), wk =   0.0005926
        k(   54) = (   0.0000000   0.2666667   0.0000000), wk =   0.0005926
        k(   55) = (   0.0000000   0.2666667   0.0666667), wk =   0.0005926
        k(   56) = (   0.0000000   0.2666667   0.1333333), wk =   0.0005926
        k(   57) = (   0.0000000   0.2666667   0.2000000), wk =   0.0005926
        k(   58) = (   0.0000000   0.2666667   0.2666667), wk =   0.0005926
        k(   59) = (   0.0000000   0.2666667   0.3333333), wk =   0.0005926
        k(   60) = (   0.0000000   0.2666667   0.4000000), wk =   0.0005926
        k(   61) = (   0.0000000   0.2666667   0.4666667), wk =   0.0005926
        k(   62) = (   0.0000000   0.2666667  -0.4666667), wk =   0.0005926
        k(   63) = (   0.0000000   0.2666667  -0.4000000), wk =   0.0005926
        k(   64) = (   0.0000000   0.2666667  -0.3333333), wk =   0.0005926
        k(   65) = (   0.0000000   0.2666667  -0.2666667), wk =   0.0005926
        k(   66) = (   0.0000000   0.2666667  -0.2000000), wk =   0.0005926
        k(   67) = (   0.0000000   0.2666667  -0.1333333), wk =   0.0005926
        k(   68) = (   0.0000000   0.2666667  -0.0666667), wk =   0.0005926
        k(   69) = (   0.0000000   0.3333333   0.0000000), wk =   0.0005926
        k(   70) = (   0.0000000   0.3333333   0.0666667), wk =   0.0005926
        k(   71) = (   0.0000000   0.3333333   0.1333333), wk =   0.0005926
        k(   72) = (   0.0000000   0.3333333   0.2000000), wk =   0.0005926
        k(   73) = (   0.0000000   0.3333333   0.2666667), wk =   0.0005926
        k(   74) = (   0.0000000   0.3333333   0.3333333), wk =   0.0005926
        k(   75) = (   0.0000000   0.3333333   0.4000000), wk =   0.0005926
        k(   76) = (   0.0000000   0.3333333   0.4666667), wk =   0.0005926
        k(   77) = (   0.0000000   0.3333333  -0.4666667), wk =   0.0005926
        k(   78) = (   0.0000000   0.3333333  -0.4000000), wk =   0.0005926
        k(   79) = (   0.0000000   0.3333333  -0.3333333), wk =   0.0005926
        k(   80) = (   0.0000000   0.3333333  -0.2666667), wk =   0.0005926
        k(   81) = (   0.0000000   0.3333333  -0.2000000), wk =   0.0005926
        k(   82) = (   0.0000000   0.3333333  -0.1333333), wk =   0.0005926
        k(   83) = (   0.0000000   0.3333333  -0.0666667), wk =   0.0005926
        k(   84) = (   0.0000000   0.4000000   0.0000000), wk =   0.0005926
        k(   85) = (   0.0000000   0.4000000   0.0666667), wk =   0.0005926
        k(   86) = (   0.0000000   0.4000000   0.1333333), wk =   0.0005926
        k(   87) = (   0.0000000   0.4000000   0.2000000), wk =   0.0005926
        k(   88) = (   0.0000000   0.4000000   0.2666667), wk =   0.0005926
        k(   89) = (   0.0000000   0.4000000   0.3333333), wk =   0.0005926
        k(   90) = (   0.0000000   0.4000000   0.4000000), wk =   0.0005926
        k(   91) = (   0.0000000   0.4000000   0.4666667), wk =   0.0005926
        k(   92) = (   0.0000000   0.4000000  -0.4666667), wk =   0.0005926
        k(   93) = (   0.0000000   0.4000000  -0.4000000), wk =   0.0005926
        k(   94) = (   0.0000000   0.4000000  -0.3333333), wk =   0.0005926
        k(   95) = (   0.0000000   0.4000000  -0.2666667), wk =   0.0005926
        k(   96) = (   0.0000000   0.4000000  -0.2000000), wk =   0.0005926
        k(   97) = (   0.0000000   0.4000000  -0.1333333), wk =   0.0005926
        k(   98) = (   0.0000000   0.4000000  -0.0666667), wk =   0.0005926
        k(   99) = (   0.0000000   0.4666667   0.0000000), wk =   0.0005926
        k(  100) = (   0.0000000   0.4666667   0.0666667), wk =   0.0005926
        k(  101) = (   0.0000000   0.4666667   0.1333333), wk =   0.0005926
        k(  102) = (   0.0000000   0.4666667   0.2000000), wk =   0.0005926
        k(  103) = (   0.0000000   0.4666667   0.2666667), wk =   0.0005926
        k(  104) = (   0.0000000   0.4666667   0.3333333), wk =   0.0005926
        k(  105) = (   0.0000000   0.4666667   0.4000000), wk =   0.0005926
        k(  106) = (   0.0000000   0.4666667   0.4666667), wk =   0.0005926
        k(  107) = (   0.0000000   0.4666667  -0.4666667), wk =   0.0005926
        k(  108) = (   0.0000000   0.4666667  -0.4000000), wk =   0.0005926
        k(  109) = (   0.0000000   0.4666667  -0.3333333), wk =   0.0005926
        k(  110) = (   0.0000000   0.4666667  -0.2666667), wk =   0.0005926
        k(  111) = (   0.0000000   0.4666667  -0.2000000), wk =   0.0005926
        k(  112) = (   0.0000000   0.4666667  -0.1333333), wk =   0.0005926
        k(  113) = (   0.0000000   0.4666667  -0.0666667), wk =   0.0005926
        k(  114) = (   0.0666667   0.0000000   0.0000000), wk =   0.0005926
        k(  115) = (   0.0666667   0.0000000   0.0666667), wk =   0.0005926
        k(  116) = (   0.0666667   0.0000000   0.1333333), wk =   0.0005926
        k(  117) = (   0.0666667   0.0000000   0.2000000), wk =   0.0005926
        k(  118) = (   0.0666667   0.0000000   0.2666667), wk =   0.0005926
        k(  119) = (   0.0666667   0.0000000   0.3333333), wk =   0.0005926
        k(  120) = (   0.0666667   0.0000000   0.4000000), wk =   0.0005926
        k(  121) = (   0.0666667   0.0000000   0.4666667), wk =   0.0005926
        k(  122) = (   0.0666667   0.0000000  -0.4666667), wk =   0.0005926
        k(  123) = (   0.0666667   0.0000000  -0.4000000), wk =   0.0005926
        k(  124) = (   0.0666667   0.0000000  -0.3333333), wk =   0.0005926
        k(  125) = (   0.0666667   0.0000000  -0.2666667), wk =   0.0005926
        k(  126) = (   0.0666667   0.0000000  -0.2000000), wk =   0.0005926
        k(  127) = (   0.0666667   0.0000000  -0.1333333), wk =   0.0005926
        k(  128) = (   0.0666667   0.0000000  -0.0666667), wk =   0.0005926
        k(  129) = (   0.0666667   0.0666667   0.0000000), wk =   0.0005926
        k(  130) = (   0.0666667   0.0666667   0.0666667), wk =   0.0005926
        k(  131) = (   0.0666667   0.0666667   0.1333333), wk =   0.0005926
        k(  132) = (   0.0666667   0.0666667   0.2000000), wk =   0.0005926
        k(  133) = (   0.0666667   0.0666667   0.2666667), wk =   0.0005926
        k(  134) = (   0.0666667   0.0666667   0.3333333), wk =   0.0005926
        k(  135) = (   0.0666667   0.0666667   0.4000000), wk =   0.0005926
        k(  136) = (   0.0666667   0.0666667   0.4666667), wk =   0.0005926
        k(  137) = (   0.0666667   0.0666667  -0.4666667), wk =   0.0005926
        k(  138) = (   0.0666667   0.0666667  -0.4000000), wk =   0.0005926
        k(  139) = (   0.0666667   0.0666667  -0.3333333), wk =   0.0005926
        k(  140) = (   0.0666667   0.0666667  -0.2666667), wk =   0.0005926
        k(  141) = (   0.0666667   0.0666667  -0.2000000), wk =   0.0005926
        k(  142) = (   0.0666667   0.0666667  -0.1333333), wk =   0.0005926
        k(  143) = (   0.0666667   0.0666667  -0.0666667), wk =   0.0005926
        k(  144) = (   0.0666667   0.1333333   0.0000000), wk =   0.0005926
        k(  145) = (   0.0666667   0.1333333   0.0666667), wk =   0.0005926
        k(  146) = (   0.0666667   0.1333333   0.1333333), wk =   0.0005926
        k(  147) = (   0.0666667   0.1333333   0.2000000), wk =   0.0005926
        k(  148) = (   0.0666667   0.1333333   0.2666667), wk =   0.0005926
        k(  149) = (   0.0666667   0.1333333   0.3333333), wk =   0.0005926
        k(  150) = (   0.0666667   0.1333333   0.4000000), wk =   0.0005926
        k(  151) = (   0.0666667   0.1333333   0.4666667), wk =   0.0005926
        k(  152) = (   0.0666667   0.1333333  -0.4666667), wk =   0.0005926
        k(  153) = (   0.0666667   0.1333333  -0.4000000), wk =   0.0005926
        k(  154) = (   0.0666667   0.1333333  -0.3333333), wk =   0.0005926
        k(  155) = (   0.0666667   0.1333333  -0.2666667), wk =   0.0005926
        k(  156) = (   0.0666667   0.1333333  -0.2000000), wk =   0.0005926
        k(  157) = (   0.0666667   0.1333333  -0.1333333), wk =   0.0005926
        k(  158) = (   0.0666667   0.1333333  -0.0666667), wk =   0.0005926
        k(  159) = (   0.0666667   0.2000000   0.0000000), wk =   0.0005926
        k(  160) = (   0.0666667   0.2000000   0.0666667), wk =   0.0005926
        k(  161) = (   0.0666667   0.2000000   0.1333333), wk =   0.0005926
        k(  162) = (   0.0666667   0.2000000   0.2000000), wk =   0.0005926
        k(  163) = (   0.0666667   0.2000000   0.2666667), wk =   0.0005926
        k(  164) = (   0.0666667   0.2000000   0.3333333), wk =   0.0005926
        k(  165) = (   0.0666667   0.2000000   0.4000000), wk =   0.0005926
        k(  166) = (   0.0666667   0.2000000   0.4666667), wk =   0.0005926
        k(  167) = (   0.0666667   0.2000000  -0.4666667), wk =   0.0005926
        k(  168) = (   0.0666667   0.2000000  -0.4000000), wk =   0.0005926
        k(  169) = (   0.0666667   0.2000000  -0.3333333), wk =   0.0005926
        k(  170) = (   0.0666667   0.2000000  -0.2666667), wk =   0.0005926
        k(  171) = (   0.0666667   0.2000000  -0.2000000), wk =   0.0005926
        k(  172) = (   0.0666667   0.2000000  -0.1333333), wk =   0.0005926
        k(  173) = (   0.0666667   0.2000000  -0.0666667), wk =   0.0005926
        k(  174) = (   0.0666667   0.2666667   0.0000000), wk =   0.0005926
        k(  175) = (   0.0666667   0.2666667   0.0666667), wk =   0.0005926
        k(  176) = (   0.0666667   0.2666667   0.1333333), wk =   0.0005926
        k(  177) = (   0.0666667   0.2666667   0.2000000), wk =   0.0005926
        k(  178) = (   0.0666667   0.2666667   0.2666667), wk =   0.0005926
        k(  179) = (   0.0666667   0.2666667   0.3333333), wk =   0.0005926
        k(  180) = (   0.0666667   0.2666667   0.4000000), wk =   0.0005926
        k(  181) = (   0.0666667   0.2666667   0.4666667), wk =   0.0005926
        k(  182) = (   0.0666667   0.2666667  -0.4666667), wk =   0.0005926
        k(  183) = (   0.0666667   0.2666667  -0.4000000), wk =   0.0005926
        k(  184) = (   0.0666667   0.2666667  -0.3333333), wk =   0.0005926
        k(  185) = (   0.0666667   0.2666667  -0.2666667), wk =   0.0005926
        k(  186) = (   0.0666667   0.2666667  -0.2000000), wk =   0.0005926
        k(  187) = (   0.0666667   0.2666667  -0.1333333), wk =   0.0005926
        k(  188) = (   0.0666667   0.2666667  -0.0666667), wk =   0.0005926
        k(  189) = (   0.0666667   0.3333333   0.0000000), wk =   0.0005926
        k(  190) = (   0.0666667   0.3333333   0.0666667), wk =   0.0005926
        k(  191) = (   0.0666667   0.3333333   0.1333333), wk =   0.0005926
        k(  192) = (   0.0666667   0.3333333   0.2000000), wk =   0.0005926
        k(  193) = (   0.0666667   0.3333333   0.2666667), wk =   0.0005926
        k(  194) = (   0.0666667   0.3333333   0.3333333), wk =   0.0005926
        k(  195) = (   0.0666667   0.3333333   0.4000000), wk =   0.0005926
        k(  196) = (   0.0666667   0.3333333   0.4666667), wk =   0.0005926
        k(  197) = (   0.0666667   0.3333333  -0.4666667), wk =   0.0005926
        k(  198) = (   0.0666667   0.3333333  -0.4000000), wk =   0.0005926
        k(  199) = (   0.0666667   0.3333333  -0.3333333), wk =   0.0005926
        k(  200) = (   0.0666667   0.3333333  -0.2666667), wk =   0.0005926
        k(  201) = (   0.0666667   0.3333333  -0.2000000), wk =   0.0005926
        k(  202) = (   0.0666667   0.3333333  -0.1333333), wk =   0.0005926
        k(  203) = (   0.0666667   0.3333333  -0.0666667), wk =   0.0005926
        k(  204) = (   0.0666667   0.4000000   0.0000000), wk =   0.0005926
        k(  205) = (   0.0666667   0.4000000   0.0666667), wk =   0.0005926
        k(  206) = (   0.0666667   0.4000000   0.1333333), wk =   0.0005926
        k(  207) = (   0.0666667   0.4000000   0.2000000), wk =   0.0005926
        k(  208) = (   0.0666667   0.4000000   0.2666667), wk =   0.0005926
        k(  209) = (   0.0666667   0.4000000   0.3333333), wk =   0.0005926
        k(  210) = (   0.0666667   0.4000000   0.4000000), wk =   0.0005926
        k(  211) = (   0.0666667   0.4000000   0.4666667), wk =   0.0005926
        k(  212) = (   0.0666667   0.4000000  -0.4666667), wk =   0.0005926
        k(  213) = (   0.0666667   0.4000000  -0.4000000), wk =   0.0005926
        k(  214) = (   0.0666667   0.4000000  -0.3333333), wk =   0.0005926
        k(  215) = (   0.0666667   0.4000000  -0.2666667), wk =   0.0005926
        k(  216) = (   0.0666667   0.4000000  -0.2000000), wk =   0.0005926
        k(  217) = (   0.0666667   0.4000000  -0.1333333), wk =   0.0005926
        k(  218) = (   0.0666667   0.4000000  -0.0666667), wk =   0.0005926
        k(  219) = (   0.0666667   0.4666667   0.0000000), wk =   0.0005926
        k(  220) = (   0.0666667   0.4666667   0.0666667), wk =   0.0005926
        k(  221) = (   0.0666667   0.4666667   0.1333333), wk =   0.0005926
        k(  222) = (   0.0666667   0.4666667   0.2000000), wk =   0.0005926
        k(  223) = (   0.0666667   0.4666667   0.2666667), wk =   0.0005926
        k(  224) = (   0.0666667   0.4666667   0.3333333), wk =   0.0005926
        k(  225) = (   0.0666667   0.4666667   0.4000000), wk =   0.0005926
        k(  226) = (   0.0666667   0.4666667   0.4666667), wk =   0.0005926
        k(  227) = (   0.0666667   0.4666667  -0.4666667), wk =   0.0005926
        k(  228) = (   0.0666667   0.4666667  -0.4000000), wk =   0.0005926
        k(  229) = (   0.0666667   0.4666667  -0.3333333), wk =   0.0005926
        k(  230) = (   0.0666667   0.4666667  -0.2666667), wk =   0.0005926
        k(  231) = (   0.0666667   0.4666667  -0.2000000), wk =   0.0005926
        k(  232) = (   0.0666667   0.4666667  -0.1333333), wk =   0.0005926
        k(  233) = (   0.0666667   0.4666667  -0.0666667), wk =   0.0005926
        k(  234) = (   0.0666667  -0.4666667   0.0000000), wk =   0.0005926
        k(  235) = (   0.0666667  -0.4666667   0.0666667), wk =   0.0005926
        k(  236) = (   0.0666667  -0.4666667   0.1333333), wk =   0.0005926
        k(  237) = (   0.0666667  -0.4666667   0.2000000), wk =   0.0005926
        k(  238) = (   0.0666667  -0.4666667   0.2666667), wk =   0.0005926
        k(  239) = (   0.0666667  -0.4666667   0.3333333), wk =   0.0005926
        k(  240) = (   0.0666667  -0.4666667   0.4000000), wk =   0.0005926
        k(  241) = (   0.0666667  -0.4666667   0.4666667), wk =   0.0005926
        k(  242) = (   0.0666667  -0.4666667  -0.4666667), wk =   0.0005926
        k(  243) = (   0.0666667  -0.4666667  -0.4000000), wk =   0.0005926
        k(  244) = (   0.0666667  -0.4666667  -0.3333333), wk =   0.0005926
        k(  245) = (   0.0666667  -0.4666667  -0.2666667), wk =   0.0005926
        k(  246) = (   0.0666667  -0.4666667  -0.2000000), wk =   0.0005926
        k(  247) = (   0.0666667  -0.4666667  -0.1333333), wk =   0.0005926
        k(  248) = (   0.0666667  -0.4666667  -0.0666667), wk =   0.0005926
        k(  249) = (   0.0666667  -0.4000000   0.0000000), wk =   0.0005926
        k(  250) = (   0.0666667  -0.4000000   0.0666667), wk =   0.0005926
        k(  251) = (   0.0666667  -0.4000000   0.1333333), wk =   0.0005926
        k(  252) = (   0.0666667  -0.4000000   0.2000000), wk =   0.0005926
        k(  253) = (   0.0666667  -0.4000000   0.2666667), wk =   0.0005926
        k(  254) = (   0.0666667  -0.4000000   0.3333333), wk =   0.0005926
        k(  255) = (   0.0666667  -0.4000000   0.4000000), wk =   0.0005926
        k(  256) = (   0.0666667  -0.4000000   0.4666667), wk =   0.0005926
        k(  257) = (   0.0666667  -0.4000000  -0.4666667), wk =   0.0005926
        k(  258) = (   0.0666667  -0.4000000  -0.4000000), wk =   0.0005926
        k(  259) = (   0.0666667  -0.4000000  -0.3333333), wk =   0.0005926
        k(  260) = (   0.0666667  -0.4000000  -0.2666667), wk =   0.0005926
        k(  261) = (   0.0666667  -0.4000000  -0.2000000), wk =   0.0005926
        k(  262) = (   0.0666667  -0.4000000  -0.1333333), wk =   0.0005926
        k(  263) = (   0.0666667  -0.4000000  -0.0666667), wk =   0.0005926
        k(  264) = (   0.0666667  -0.3333333   0.0000000), wk =   0.0005926
        k(  265) = (   0.0666667  -0.3333333   0.0666667), wk =   0.0005926
        k(  266) = (   0.0666667  -0.3333333   0.1333333), wk =   0.0005926
        k(  267) = (   0.0666667  -0.3333333   0.2000000), wk =   0.0005926
        k(  268) = (   0.0666667  -0.3333333   0.2666667), wk =   0.0005926
        k(  269) = (   0.0666667  -0.3333333   0.3333333), wk =   0.0005926
        k(  270) = (   0.0666667  -0.3333333   0.4000000), wk =   0.0005926
        k(  271) = (   0.0666667  -0.3333333   0.4666667), wk =   0.0005926
        k(  272) = (   0.0666667  -0.3333333  -0.4666667), wk =   0.0005926
        k(  273) = (   0.0666667  -0.3333333  -0.4000000), wk =   0.0005926
        k(  274) = (   0.0666667  -0.3333333  -0.3333333), wk =   0.0005926
        k(  275) = (   0.0666667  -0.3333333  -0.2666667), wk =   0.0005926
        k(  276) = (   0.0666667  -0.3333333  -0.2000000), wk =   0.0005926
        k(  277) = (   0.0666667  -0.3333333  -0.1333333), wk =   0.0005926
        k(  278) = (   0.0666667  -0.3333333  -0.0666667), wk =   0.0005926
        k(  279) = (   0.0666667  -0.2666667   0.0000000), wk =   0.0005926
        k(  280) = (   0.0666667  -0.2666667   0.0666667), wk =   0.0005926
        k(  281) = (   0.0666667  -0.2666667   0.1333333), wk =   0.0005926
        k(  282) = (   0.0666667  -0.2666667   0.2000000), wk =   0.0005926
        k(  283) = (   0.0666667  -0.2666667   0.2666667), wk =   0.0005926
        k(  284) = (   0.0666667  -0.2666667   0.3333333), wk =   0.0005926
        k(  285) = (   0.0666667  -0.2666667   0.4000000), wk =   0.0005926
        k(  286) = (   0.0666667  -0.2666667   0.4666667), wk =   0.0005926
        k(  287) = (   0.0666667  -0.2666667  -0.4666667), wk =   0.0005926
        k(  288) = (   0.0666667  -0.2666667  -0.4000000), wk =   0.0005926
        k(  289) = (   0.0666667  -0.2666667  -0.3333333), wk =   0.0005926
        k(  290) = (   0.0666667  -0.2666667  -0.2666667), wk =   0.0005926
        k(  291) = (   0.0666667  -0.2666667  -0.2000000), wk =   0.0005926
        k(  292) = (   0.0666667  -0.2666667  -0.1333333), wk =   0.0005926
        k(  293) = (   0.0666667  -0.2666667  -0.0666667), wk =   0.0005926
        k(  294) = (   0.0666667  -0.2000000   0.0000000), wk =   0.0005926
        k(  295) = (   0.0666667  -0.2000000   0.0666667), wk =   0.0005926
        k(  296) = (   0.0666667  -0.2000000   0.1333333), wk =   0.0005926
        k(  297) = (   0.0666667  -0.2000000   0.2000000), wk =   0.0005926
        k(  298) = (   0.0666667  -0.2000000   0.2666667), wk =   0.0005926
        k(  299) = (   0.0666667  -0.2000000   0.3333333), wk =   0.0005926
        k(  300) = (   0.0666667  -0.2000000   0.4000000), wk =   0.0005926
        k(  301) = (   0.0666667  -0.2000000   0.4666667), wk =   0.0005926
        k(  302) = (   0.0666667  -0.2000000  -0.4666667), wk =   0.0005926
        k(  303) = (   0.0666667  -0.2000000  -0.4000000), wk =   0.0005926
        k(  304) = (   0.0666667  -0.2000000  -0.3333333), wk =   0.0005926
        k(  305) = (   0.0666667  -0.2000000  -0.2666667), wk =   0.0005926
        k(  306) = (   0.0666667  -0.2000000  -0.2000000), wk =   0.0005926
        k(  307) = (   0.0666667  -0.2000000  -0.1333333), wk =   0.0005926
        k(  308) = (   0.0666667  -0.2000000  -0.0666667), wk =   0.0005926
        k(  309) = (   0.0666667  -0.1333333   0.0000000), wk =   0.0005926
        k(  310) = (   0.0666667  -0.1333333   0.0666667), wk =   0.0005926
        k(  311) = (   0.0666667  -0.1333333   0.1333333), wk =   0.0005926
        k(  312) = (   0.0666667  -0.1333333   0.2000000), wk =   0.0005926
        k(  313) = (   0.0666667  -0.1333333   0.2666667), wk =   0.0005926
        k(  314) = (   0.0666667  -0.1333333   0.3333333), wk =   0.0005926
        k(  315) = (   0.0666667  -0.1333333   0.4000000), wk =   0.0005926
        k(  316) = (   0.0666667  -0.1333333   0.4666667), wk =   0.0005926
        k(  317) = (   0.0666667  -0.1333333  -0.4666667), wk =   0.0005926
        k(  318) = (   0.0666667  -0.1333333  -0.4000000), wk =   0.0005926
        k(  319) = (   0.0666667  -0.1333333  -0.3333333), wk =   0.0005926
        k(  320) = (   0.0666667  -0.1333333  -0.2666667), wk =   0.0005926
        k(  321) = (   0.0666667  -0.1333333  -0.2000000), wk =   0.0005926
        k(  322) = (   0.0666667  -0.1333333  -0.1333333), wk =   0.0005926
        k(  323) = (   0.0666667  -0.1333333  -0.0666667), wk =   0.0005926
        k(  324) = (   0.0666667  -0.0666667   0.0000000), wk =   0.0005926
        k(  325) = (   0.0666667  -0.0666667   0.0666667), wk =   0.0005926
        k(  326) = (   0.0666667  -0.0666667   0.1333333), wk =   0.0005926
        k(  327) = (   0.0666667  -0.0666667   0.2000000), wk =   0.0005926
        k(  328) = (   0.0666667  -0.0666667   0.2666667), wk =   0.0005926
        k(  329) = (   0.0666667  -0.0666667   0.3333333), wk =   0.0005926
        k(  330) = (   0.0666667  -0.0666667   0.4000000), wk =   0.0005926
        k(  331) = (   0.0666667  -0.0666667   0.4666667), wk =   0.0005926
        k(  332) = (   0.0666667  -0.0666667  -0.4666667), wk =   0.0005926
        k(  333) = (   0.0666667  -0.0666667  -0.4000000), wk =   0.0005926
        k(  334) = (   0.0666667  -0.0666667  -0.3333333), wk =   0.0005926
        k(  335) = (   0.0666667  -0.0666667  -0.2666667), wk =   0.0005926
        k(  336) = (   0.0666667  -0.0666667  -0.2000000), wk =   0.0005926
        k(  337) = (   0.0666667  -0.0666667  -0.1333333), wk =   0.0005926
        k(  338) = (   0.0666667  -0.0666667  -0.0666667), wk =   0.0005926
        k(  339) = (   0.1333333   0.0000000   0.0000000), wk =   0.0005926
        k(  340) = (   0.1333333   0.0000000   0.0666667), wk =   0.0005926
        k(  341) = (   0.1333333   0.0000000   0.1333333), wk =   0.0005926
        k(  342) = (   0.1333333   0.0000000   0.2000000), wk =   0.0005926
        k(  343) = (   0.1333333   0.0000000   0.2666667), wk =   0.0005926
        k(  344) = (   0.1333333   0.0000000   0.3333333), wk =   0.0005926
        k(  345) = (   0.1333333   0.0000000   0.4000000), wk =   0.0005926
        k(  346) = (   0.1333333   0.0000000   0.4666667), wk =   0.0005926
        k(  347) = (   0.1333333   0.0000000  -0.4666667), wk =   0.0005926
        k(  348) = (   0.1333333   0.0000000  -0.4000000), wk =   0.0005926
        k(  349) = (   0.1333333   0.0000000  -0.3333333), wk =   0.0005926
        k(  350) = (   0.1333333   0.0000000  -0.2666667), wk =   0.0005926
        k(  351) = (   0.1333333   0.0000000  -0.2000000), wk =   0.0005926
        k(  352) = (   0.1333333   0.0000000  -0.1333333), wk =   0.0005926
        k(  353) = (   0.1333333   0.0000000  -0.0666667), wk =   0.0005926
        k(  354) = (   0.1333333   0.0666667   0.0000000), wk =   0.0005926
        k(  355) = (   0.1333333   0.0666667   0.0666667), wk =   0.0005926
        k(  356) = (   0.1333333   0.0666667   0.1333333), wk =   0.0005926
        k(  357) = (   0.1333333   0.0666667   0.2000000), wk =   0.0005926
        k(  358) = (   0.1333333   0.0666667   0.2666667), wk =   0.0005926
        k(  359) = (   0.1333333   0.0666667   0.3333333), wk =   0.0005926
        k(  360) = (   0.1333333   0.0666667   0.4000000), wk =   0.0005926
        k(  361) = (   0.1333333   0.0666667   0.4666667), wk =   0.0005926
        k(  362) = (   0.1333333   0.0666667  -0.4666667), wk =   0.0005926
        k(  363) = (   0.1333333   0.0666667  -0.4000000), wk =   0.0005926
        k(  364) = (   0.1333333   0.0666667  -0.3333333), wk =   0.0005926
        k(  365) = (   0.1333333   0.0666667  -0.2666667), wk =   0.0005926
        k(  366) = (   0.1333333   0.0666667  -0.2000000), wk =   0.0005926
        k(  367) = (   0.1333333   0.0666667  -0.1333333), wk =   0.0005926
        k(  368) = (   0.1333333   0.0666667  -0.0666667), wk =   0.0005926
        k(  369) = (   0.1333333   0.1333333   0.0000000), wk =   0.0005926
        k(  370) = (   0.1333333   0.1333333   0.0666667), wk =   0.0005926
        k(  371) = (   0.1333333   0.1333333   0.1333333), wk =   0.0005926
        k(  372) = (   0.1333333   0.1333333   0.2000000), wk =   0.0005926
        k(  373) = (   0.1333333   0.1333333   0.2666667), wk =   0.0005926
        k(  374) = (   0.1333333   0.1333333   0.3333333), wk =   0.0005926
        k(  375) = (   0.1333333   0.1333333   0.4000000), wk =   0.0005926
        k(  376) = (   0.1333333   0.1333333   0.4666667), wk =   0.0005926
        k(  377) = (   0.1333333   0.1333333  -0.4666667), wk =   0.0005926
        k(  378) = (   0.1333333   0.1333333  -0.4000000), wk =   0.0005926
        k(  379) = (   0.1333333   0.1333333  -0.3333333), wk =   0.0005926
        k(  380) = (   0.1333333   0.1333333  -0.2666667), wk =   0.0005926
        k(  381) = (   0.1333333   0.1333333  -0.2000000), wk =   0.0005926
        k(  382) = (   0.1333333   0.1333333  -0.1333333), wk =   0.0005926
        k(  383) = (   0.1333333   0.1333333  -0.0666667), wk =   0.0005926
        k(  384) = (   0.1333333   0.2000000   0.0000000), wk =   0.0005926
        k(  385) = (   0.1333333   0.2000000   0.0666667), wk =   0.0005926
        k(  386) = (   0.1333333   0.2000000   0.1333333), wk =   0.0005926
        k(  387) = (   0.1333333   0.2000000   0.2000000), wk =   0.0005926
        k(  388) = (   0.1333333   0.2000000   0.2666667), wk =   0.0005926
        k(  389) = (   0.1333333   0.2000000   0.3333333), wk =   0.0005926
        k(  390) = (   0.1333333   0.2000000   0.4000000), wk =   0.0005926
        k(  391) = (   0.1333333   0.2000000   0.4666667), wk =   0.0005926
        k(  392) = (   0.1333333   0.2000000  -0.4666667), wk =   0.0005926
        k(  393) = (   0.1333333   0.2000000  -0.4000000), wk =   0.0005926
        k(  394) = (   0.1333333   0.2000000  -0.3333333), wk =   0.0005926
        k(  395) = (   0.1333333   0.2000000  -0.2666667), wk =   0.0005926
        k(  396) = (   0.1333333   0.2000000  -0.2000000), wk =   0.0005926
        k(  397) = (   0.1333333   0.2000000  -0.1333333), wk =   0.0005926
        k(  398) = (   0.1333333   0.2000000  -0.0666667), wk =   0.0005926
        k(  399) = (   0.1333333   0.2666667   0.0000000), wk =   0.0005926
        k(  400) = (   0.1333333   0.2666667   0.0666667), wk =   0.0005926
        k(  401) = (   0.1333333   0.2666667   0.1333333), wk =   0.0005926
        k(  402) = (   0.1333333   0.2666667   0.2000000), wk =   0.0005926
        k(  403) = (   0.1333333   0.2666667   0.2666667), wk =   0.0005926
        k(  404) = (   0.1333333   0.2666667   0.3333333), wk =   0.0005926
        k(  405) = (   0.1333333   0.2666667   0.4000000), wk =   0.0005926
        k(  406) = (   0.1333333   0.2666667   0.4666667), wk =   0.0005926
        k(  407) = (   0.1333333   0.2666667  -0.4666667), wk =   0.0005926
        k(  408) = (   0.1333333   0.2666667  -0.4000000), wk =   0.0005926
        k(  409) = (   0.1333333   0.2666667  -0.3333333), wk =   0.0005926
        k(  410) = (   0.1333333   0.2666667  -0.2666667), wk =   0.0005926
        k(  411) = (   0.1333333   0.2666667  -0.2000000), wk =   0.0005926
        k(  412) = (   0.1333333   0.2666667  -0.1333333), wk =   0.0005926
        k(  413) = (   0.1333333   0.2666667  -0.0666667), wk =   0.0005926
        k(  414) = (   0.1333333   0.3333333   0.0000000), wk =   0.0005926
        k(  415) = (   0.1333333   0.3333333   0.0666667), wk =   0.0005926
        k(  416) = (   0.1333333   0.3333333   0.1333333), wk =   0.0005926
        k(  417) = (   0.1333333   0.3333333   0.2000000), wk =   0.0005926
        k(  418) = (   0.1333333   0.3333333   0.2666667), wk =   0.0005926
        k(  419) = (   0.1333333   0.3333333   0.3333333), wk =   0.0005926
        k(  420) = (   0.1333333   0.3333333   0.4000000), wk =   0.0005926
        k(  421) = (   0.1333333   0.3333333   0.4666667), wk =   0.0005926
        k(  422) = (   0.1333333   0.3333333  -0.4666667), wk =   0.0005926
        k(  423) = (   0.1333333   0.3333333  -0.4000000), wk =   0.0005926
        k(  424) = (   0.1333333   0.3333333  -0.3333333), wk =   0.0005926
        k(  425) = (   0.1333333   0.3333333  -0.2666667), wk =   0.0005926
        k(  426) = (   0.1333333   0.3333333  -0.2000000), wk =   0.0005926
        k(  427) = (   0.1333333   0.3333333  -0.1333333), wk =   0.0005926
        k(  428) = (   0.1333333   0.3333333  -0.0666667), wk =   0.0005926
        k(  429) = (   0.1333333   0.4000000   0.0000000), wk =   0.0005926
        k(  430) = (   0.1333333   0.4000000   0.0666667), wk =   0.0005926
        k(  431) = (   0.1333333   0.4000000   0.1333333), wk =   0.0005926
        k(  432) = (   0.1333333   0.4000000   0.2000000), wk =   0.0005926
        k(  433) = (   0.1333333   0.4000000   0.2666667), wk =   0.0005926
        k(  434) = (   0.1333333   0.4000000   0.3333333), wk =   0.0005926
        k(  435) = (   0.1333333   0.4000000   0.4000000), wk =   0.0005926
        k(  436) = (   0.1333333   0.4000000   0.4666667), wk =   0.0005926
        k(  437) = (   0.1333333   0.4000000  -0.4666667), wk =   0.0005926
        k(  438) = (   0.1333333   0.4000000  -0.4000000), wk =   0.0005926
        k(  439) = (   0.1333333   0.4000000  -0.3333333), wk =   0.0005926
        k(  440) = (   0.1333333   0.4000000  -0.2666667), wk =   0.0005926
        k(  441) = (   0.1333333   0.4000000  -0.2000000), wk =   0.0005926
        k(  442) = (   0.1333333   0.4000000  -0.1333333), wk =   0.0005926
        k(  443) = (   0.1333333   0.4000000  -0.0666667), wk =   0.0005926
        k(  444) = (   0.1333333   0.4666667   0.0000000), wk =   0.0005926
        k(  445) = (   0.1333333   0.4666667   0.0666667), wk =   0.0005926
        k(  446) = (   0.1333333   0.4666667   0.1333333), wk =   0.0005926
        k(  447) = (   0.1333333   0.4666667   0.2000000), wk =   0.0005926
        k(  448) = (   0.1333333   0.4666667   0.2666667), wk =   0.0005926
        k(  449) = (   0.1333333   0.4666667   0.3333333), wk =   0.0005926
        k(  450) = (   0.1333333   0.4666667   0.4000000), wk =   0.0005926
        k(  451) = (   0.1333333   0.4666667   0.4666667), wk =   0.0005926
        k(  452) = (   0.1333333   0.4666667  -0.4666667), wk =   0.0005926
        k(  453) = (   0.1333333   0.4666667  -0.4000000), wk =   0.0005926
        k(  454) = (   0.1333333   0.4666667  -0.3333333), wk =   0.0005926
        k(  455) = (   0.1333333   0.4666667  -0.2666667), wk =   0.0005926
        k(  456) = (   0.1333333   0.4666667  -0.2000000), wk =   0.0005926
        k(  457) = (   0.1333333   0.4666667  -0.1333333), wk =   0.0005926
        k(  458) = (   0.1333333   0.4666667  -0.0666667), wk =   0.0005926
        k(  459) = (   0.1333333  -0.4666667   0.0000000), wk =   0.0005926
        k(  460) = (   0.1333333  -0.4666667   0.0666667), wk =   0.0005926
        k(  461) = (   0.1333333  -0.4666667   0.1333333), wk =   0.0005926
        k(  462) = (   0.1333333  -0.4666667   0.2000000), wk =   0.0005926
        k(  463) = (   0.1333333  -0.4666667   0.2666667), wk =   0.0005926
        k(  464) = (   0.1333333  -0.4666667   0.3333333), wk =   0.0005926
        k(  465) = (   0.1333333  -0.4666667   0.4000000), wk =   0.0005926
        k(  466) = (   0.1333333  -0.4666667   0.4666667), wk =   0.0005926
        k(  467) = (   0.1333333  -0.4666667  -0.4666667), wk =   0.0005926
        k(  468) = (   0.1333333  -0.4666667  -0.4000000), wk =   0.0005926
        k(  469) = (   0.1333333  -0.4666667  -0.3333333), wk =   0.0005926
        k(  470) = (   0.1333333  -0.4666667  -0.2666667), wk =   0.0005926
        k(  471) = (   0.1333333  -0.4666667  -0.2000000), wk =   0.0005926
        k(  472) = (   0.1333333  -0.4666667  -0.1333333), wk =   0.0005926
        k(  473) = (   0.1333333  -0.4666667  -0.0666667), wk =   0.0005926
        k(  474) = (   0.1333333  -0.4000000   0.0000000), wk =   0.0005926
        k(  475) = (   0.1333333  -0.4000000   0.0666667), wk =   0.0005926
        k(  476) = (   0.1333333  -0.4000000   0.1333333), wk =   0.0005926
        k(  477) = (   0.1333333  -0.4000000   0.2000000), wk =   0.0005926
        k(  478) = (   0.1333333  -0.4000000   0.2666667), wk =   0.0005926
        k(  479) = (   0.1333333  -0.4000000   0.3333333), wk =   0.0005926
        k(  480) = (   0.1333333  -0.4000000   0.4000000), wk =   0.0005926
        k(  481) = (   0.1333333  -0.4000000   0.4666667), wk =   0.0005926
        k(  482) = (   0.1333333  -0.4000000  -0.4666667), wk =   0.0005926
        k(  483) = (   0.1333333  -0.4000000  -0.4000000), wk =   0.0005926
        k(  484) = (   0.1333333  -0.4000000  -0.3333333), wk =   0.0005926
        k(  485) = (   0.1333333  -0.4000000  -0.2666667), wk =   0.0005926
        k(  486) = (   0.1333333  -0.4000000  -0.2000000), wk =   0.0005926
        k(  487) = (   0.1333333  -0.4000000  -0.1333333), wk =   0.0005926
        k(  488) = (   0.1333333  -0.4000000  -0.0666667), wk =   0.0005926
        k(  489) = (   0.1333333  -0.3333333   0.0000000), wk =   0.0005926
        k(  490) = (   0.1333333  -0.3333333   0.0666667), wk =   0.0005926
        k(  491) = (   0.1333333  -0.3333333   0.1333333), wk =   0.0005926
        k(  492) = (   0.1333333  -0.3333333   0.2000000), wk =   0.0005926
        k(  493) = (   0.1333333  -0.3333333   0.2666667), wk =   0.0005926
        k(  494) = (   0.1333333  -0.3333333   0.3333333), wk =   0.0005926
        k(  495) = (   0.1333333  -0.3333333   0.4000000), wk =   0.0005926
        k(  496) = (   0.1333333  -0.3333333   0.4666667), wk =   0.0005926
        k(  497) = (   0.1333333  -0.3333333  -0.4666667), wk =   0.0005926
        k(  498) = (   0.1333333  -0.3333333  -0.4000000), wk =   0.0005926
        k(  499) = (   0.1333333  -0.3333333  -0.3333333), wk =   0.0005926
        k(  500) = (   0.1333333  -0.3333333  -0.2666667), wk =   0.0005926
        k(  501) = (   0.1333333  -0.3333333  -0.2000000), wk =   0.0005926
        k(  502) = (   0.1333333  -0.3333333  -0.1333333), wk =   0.0005926
        k(  503) = (   0.1333333  -0.3333333  -0.0666667), wk =   0.0005926
        k(  504) = (   0.1333333  -0.2666667   0.0000000), wk =   0.0005926
        k(  505) = (   0.1333333  -0.2666667   0.0666667), wk =   0.0005926
        k(  506) = (   0.1333333  -0.2666667   0.1333333), wk =   0.0005926
        k(  507) = (   0.1333333  -0.2666667   0.2000000), wk =   0.0005926
        k(  508) = (   0.1333333  -0.2666667   0.2666667), wk =   0.0005926
        k(  509) = (   0.1333333  -0.2666667   0.3333333), wk =   0.0005926
        k(  510) = (   0.1333333  -0.2666667   0.4000000), wk =   0.0005926
        k(  511) = (   0.1333333  -0.2666667   0.4666667), wk =   0.0005926
        k(  512) = (   0.1333333  -0.2666667  -0.4666667), wk =   0.0005926
        k(  513) = (   0.1333333  -0.2666667  -0.4000000), wk =   0.0005926
        k(  514) = (   0.1333333  -0.2666667  -0.3333333), wk =   0.0005926
        k(  515) = (   0.1333333  -0.2666667  -0.2666667), wk =   0.0005926
        k(  516) = (   0.1333333  -0.2666667  -0.2000000), wk =   0.0005926
        k(  517) = (   0.1333333  -0.2666667  -0.1333333), wk =   0.0005926
        k(  518) = (   0.1333333  -0.2666667  -0.0666667), wk =   0.0005926
        k(  519) = (   0.1333333  -0.2000000   0.0000000), wk =   0.0005926
        k(  520) = (   0.1333333  -0.2000000   0.0666667), wk =   0.0005926
        k(  521) = (   0.1333333  -0.2000000   0.1333333), wk =   0.0005926
        k(  522) = (   0.1333333  -0.2000000   0.2000000), wk =   0.0005926
        k(  523) = (   0.1333333  -0.2000000   0.2666667), wk =   0.0005926
        k(  524) = (   0.1333333  -0.2000000   0.3333333), wk =   0.0005926
        k(  525) = (   0.1333333  -0.2000000   0.4000000), wk =   0.0005926
        k(  526) = (   0.1333333  -0.2000000   0.4666667), wk =   0.0005926
        k(  527) = (   0.1333333  -0.2000000  -0.4666667), wk =   0.0005926
        k(  528) = (   0.1333333  -0.2000000  -0.4000000), wk =   0.0005926
        k(  529) = (   0.1333333  -0.2000000  -0.3333333), wk =   0.0005926
        k(  530) = (   0.1333333  -0.2000000  -0.2666667), wk =   0.0005926
        k(  531) = (   0.1333333  -0.2000000  -0.2000000), wk =   0.0005926
        k(  532) = (   0.1333333  -0.2000000  -0.1333333), wk =   0.0005926
        k(  533) = (   0.1333333  -0.2000000  -0.0666667), wk =   0.0005926
        k(  534) = (   0.1333333  -0.1333333   0.0000000), wk =   0.0005926
        k(  535) = (   0.1333333  -0.1333333   0.0666667), wk =   0.0005926
        k(  536) = (   0.1333333  -0.1333333   0.1333333), wk =   0.0005926
        k(  537) = (   0.1333333  -0.1333333   0.2000000), wk =   0.0005926
        k(  538) = (   0.1333333  -0.1333333   0.2666667), wk =   0.0005926
        k(  539) = (   0.1333333  -0.1333333   0.3333333), wk =   0.0005926
        k(  540) = (   0.1333333  -0.1333333   0.4000000), wk =   0.0005926
        k(  541) = (   0.1333333  -0.1333333   0.4666667), wk =   0.0005926
        k(  542) = (   0.1333333  -0.1333333  -0.4666667), wk =   0.0005926
        k(  543) = (   0.1333333  -0.1333333  -0.4000000), wk =   0.0005926
        k(  544) = (   0.1333333  -0.1333333  -0.3333333), wk =   0.0005926
        k(  545) = (   0.1333333  -0.1333333  -0.2666667), wk =   0.0005926
        k(  546) = (   0.1333333  -0.1333333  -0.2000000), wk =   0.0005926
        k(  547) = (   0.1333333  -0.1333333  -0.1333333), wk =   0.0005926
        k(  548) = (   0.1333333  -0.1333333  -0.0666667), wk =   0.0005926
        k(  549) = (   0.1333333  -0.0666667   0.0000000), wk =   0.0005926
        k(  550) = (   0.1333333  -0.0666667   0.0666667), wk =   0.0005926
        k(  551) = (   0.1333333  -0.0666667   0.1333333), wk =   0.0005926
        k(  552) = (   0.1333333  -0.0666667   0.2000000), wk =   0.0005926
        k(  553) = (   0.1333333  -0.0666667   0.2666667), wk =   0.0005926
        k(  554) = (   0.1333333  -0.0666667   0.3333333), wk =   0.0005926
        k(  555) = (   0.1333333  -0.0666667   0.4000000), wk =   0.0005926
        k(  556) = (   0.1333333  -0.0666667   0.4666667), wk =   0.0005926
        k(  557) = (   0.1333333  -0.0666667  -0.4666667), wk =   0.0005926
        k(  558) = (   0.1333333  -0.0666667  -0.4000000), wk =   0.0005926
        k(  559) = (   0.1333333  -0.0666667  -0.3333333), wk =   0.0005926
        k(  560) = (   0.1333333  -0.0666667  -0.2666667), wk =   0.0005926
        k(  561) = (   0.1333333  -0.0666667  -0.2000000), wk =   0.0005926
        k(  562) = (   0.1333333  -0.0666667  -0.1333333), wk =   0.0005926
        k(  563) = (   0.1333333  -0.0666667  -0.0666667), wk =   0.0005926
        k(  564) = (   0.2000000   0.0000000   0.0000000), wk =   0.0005926
        k(  565) = (   0.2000000   0.0000000   0.0666667), wk =   0.0005926
        k(  566) = (   0.2000000   0.0000000   0.1333333), wk =   0.0005926
        k(  567) = (   0.2000000   0.0000000   0.2000000), wk =   0.0005926
        k(  568) = (   0.2000000   0.0000000   0.2666667), wk =   0.0005926
        k(  569) = (   0.2000000   0.0000000   0.3333333), wk =   0.0005926
        k(  570) = (   0.2000000   0.0000000   0.4000000), wk =   0.0005926
        k(  571) = (   0.2000000   0.0000000   0.4666667), wk =   0.0005926
        k(  572) = (   0.2000000   0.0000000  -0.4666667), wk =   0.0005926
        k(  573) = (   0.2000000   0.0000000  -0.4000000), wk =   0.0005926
        k(  574) = (   0.2000000   0.0000000  -0.3333333), wk =   0.0005926
        k(  575) = (   0.2000000   0.0000000  -0.2666667), wk =   0.0005926
        k(  576) = (   0.2000000   0.0000000  -0.2000000), wk =   0.0005926
        k(  577) = (   0.2000000   0.0000000  -0.1333333), wk =   0.0005926
        k(  578) = (   0.2000000   0.0000000  -0.0666667), wk =   0.0005926
        k(  579) = (   0.2000000   0.0666667   0.0000000), wk =   0.0005926
        k(  580) = (   0.2000000   0.0666667   0.0666667), wk =   0.0005926
        k(  581) = (   0.2000000   0.0666667   0.1333333), wk =   0.0005926
        k(  582) = (   0.2000000   0.0666667   0.2000000), wk =   0.0005926
        k(  583) = (   0.2000000   0.0666667   0.2666667), wk =   0.0005926
        k(  584) = (   0.2000000   0.0666667   0.3333333), wk =   0.0005926
        k(  585) = (   0.2000000   0.0666667   0.4000000), wk =   0.0005926
        k(  586) = (   0.2000000   0.0666667   0.4666667), wk =   0.0005926
        k(  587) = (   0.2000000   0.0666667  -0.4666667), wk =   0.0005926
        k(  588) = (   0.2000000   0.0666667  -0.4000000), wk =   0.0005926
        k(  589) = (   0.2000000   0.0666667  -0.3333333), wk =   0.0005926
        k(  590) = (   0.2000000   0.0666667  -0.2666667), wk =   0.0005926
        k(  591) = (   0.2000000   0.0666667  -0.2000000), wk =   0.0005926
        k(  592) = (   0.2000000   0.0666667  -0.1333333), wk =   0.0005926
        k(  593) = (   0.2000000   0.0666667  -0.0666667), wk =   0.0005926
        k(  594) = (   0.2000000   0.1333333   0.0000000), wk =   0.0005926
        k(  595) = (   0.2000000   0.1333333   0.0666667), wk =   0.0005926
        k(  596) = (   0.2000000   0.1333333   0.1333333), wk =   0.0005926
        k(  597) = (   0.2000000   0.1333333   0.2000000), wk =   0.0005926
        k(  598) = (   0.2000000   0.1333333   0.2666667), wk =   0.0005926
        k(  599) = (   0.2000000   0.1333333   0.3333333), wk =   0.0005926
        k(  600) = (   0.2000000   0.1333333   0.4000000), wk =   0.0005926
        k(  601) = (   0.2000000   0.1333333   0.4666667), wk =   0.0005926
        k(  602) = (   0.2000000   0.1333333  -0.4666667), wk =   0.0005926
        k(  603) = (   0.2000000   0.1333333  -0.4000000), wk =   0.0005926
        k(  604) = (   0.2000000   0.1333333  -0.3333333), wk =   0.0005926
        k(  605) = (   0.2000000   0.1333333  -0.2666667), wk =   0.0005926
        k(  606) = (   0.2000000   0.1333333  -0.2000000), wk =   0.0005926
        k(  607) = (   0.2000000   0.1333333  -0.1333333), wk =   0.0005926
        k(  608) = (   0.2000000   0.1333333  -0.0666667), wk =   0.0005926
        k(  609) = (   0.2000000   0.2000000   0.0000000), wk =   0.0005926
        k(  610) = (   0.2000000   0.2000000   0.0666667), wk =   0.0005926
        k(  611) = (   0.2000000   0.2000000   0.1333333), wk =   0.0005926
        k(  612) = (   0.2000000   0.2000000   0.2000000), wk =   0.0005926
        k(  613) = (   0.2000000   0.2000000   0.2666667), wk =   0.0005926
        k(  614) = (   0.2000000   0.2000000   0.3333333), wk =   0.0005926
        k(  615) = (   0.2000000   0.2000000   0.4000000), wk =   0.0005926
        k(  616) = (   0.2000000   0.2000000   0.4666667), wk =   0.0005926
        k(  617) = (   0.2000000   0.2000000  -0.4666667), wk =   0.0005926
        k(  618) = (   0.2000000   0.2000000  -0.4000000), wk =   0.0005926
        k(  619) = (   0.2000000   0.2000000  -0.3333333), wk =   0.0005926
        k(  620) = (   0.2000000   0.2000000  -0.2666667), wk =   0.0005926
        k(  621) = (   0.2000000   0.2000000  -0.2000000), wk =   0.0005926
        k(  622) = (   0.2000000   0.2000000  -0.1333333), wk =   0.0005926
        k(  623) = (   0.2000000   0.2000000  -0.0666667), wk =   0.0005926
        k(  624) = (   0.2000000   0.2666667   0.0000000), wk =   0.0005926
        k(  625) = (   0.2000000   0.2666667   0.0666667), wk =   0.0005926
        k(  626) = (   0.2000000   0.2666667   0.1333333), wk =   0.0005926
        k(  627) = (   0.2000000   0.2666667   0.2000000), wk =   0.0005926
        k(  628) = (   0.2000000   0.2666667   0.2666667), wk =   0.0005926
        k(  629) = (   0.2000000   0.2666667   0.3333333), wk =   0.0005926
        k(  630) = (   0.2000000   0.2666667   0.4000000), wk =   0.0005926
        k(  631) = (   0.2000000   0.2666667   0.4666667), wk =   0.0005926
        k(  632) = (   0.2000000   0.2666667  -0.4666667), wk =   0.0005926
        k(  633) = (   0.2000000   0.2666667  -0.4000000), wk =   0.0005926
        k(  634) = (   0.2000000   0.2666667  -0.3333333), wk =   0.0005926
        k(  635) = (   0.2000000   0.2666667  -0.2666667), wk =   0.0005926
        k(  636) = (   0.2000000   0.2666667  -0.2000000), wk =   0.0005926
        k(  637) = (   0.2000000   0.2666667  -0.1333333), wk =   0.0005926
        k(  638) = (   0.2000000   0.2666667  -0.0666667), wk =   0.0005926
        k(  639) = (   0.2000000   0.3333333   0.0000000), wk =   0.0005926
        k(  640) = (   0.2000000   0.3333333   0.0666667), wk =   0.0005926
        k(  641) = (   0.2000000   0.3333333   0.1333333), wk =   0.0005926
        k(  642) = (   0.2000000   0.3333333   0.2000000), wk =   0.0005926
        k(  643) = (   0.2000000   0.3333333   0.2666667), wk =   0.0005926
        k(  644) = (   0.2000000   0.3333333   0.3333333), wk =   0.0005926
        k(  645) = (   0.2000000   0.3333333   0.4000000), wk =   0.0005926
        k(  646) = (   0.2000000   0.3333333   0.4666667), wk =   0.0005926
        k(  647) = (   0.2000000   0.3333333  -0.4666667), wk =   0.0005926
        k(  648) = (   0.2000000   0.3333333  -0.4000000), wk =   0.0005926
        k(  649) = (   0.2000000   0.3333333  -0.3333333), wk =   0.0005926
        k(  650) = (   0.2000000   0.3333333  -0.2666667), wk =   0.0005926
        k(  651) = (   0.2000000   0.3333333  -0.2000000), wk =   0.0005926
        k(  652) = (   0.2000000   0.3333333  -0.1333333), wk =   0.0005926
        k(  653) = (   0.2000000   0.3333333  -0.0666667), wk =   0.0005926
        k(  654) = (   0.2000000   0.4000000   0.0000000), wk =   0.0005926
        k(  655) = (   0.2000000   0.4000000   0.0666667), wk =   0.0005926
        k(  656) = (   0.2000000   0.4000000   0.1333333), wk =   0.0005926
        k(  657) = (   0.2000000   0.4000000   0.2000000), wk =   0.0005926
        k(  658) = (   0.2000000   0.4000000   0.2666667), wk =   0.0005926
        k(  659) = (   0.2000000   0.4000000   0.3333333), wk =   0.0005926
        k(  660) = (   0.2000000   0.4000000   0.4000000), wk =   0.0005926
        k(  661) = (   0.2000000   0.4000000   0.4666667), wk =   0.0005926
        k(  662) = (   0.2000000   0.4000000  -0.4666667), wk =   0.0005926
        k(  663) = (   0.2000000   0.4000000  -0.4000000), wk =   0.0005926
        k(  664) = (   0.2000000   0.4000000  -0.3333333), wk =   0.0005926
        k(  665) = (   0.2000000   0.4000000  -0.2666667), wk =   0.0005926
        k(  666) = (   0.2000000   0.4000000  -0.2000000), wk =   0.0005926
        k(  667) = (   0.2000000   0.4000000  -0.1333333), wk =   0.0005926
        k(  668) = (   0.2000000   0.4000000  -0.0666667), wk =   0.0005926
        k(  669) = (   0.2000000   0.4666667   0.0000000), wk =   0.0005926
        k(  670) = (   0.2000000   0.4666667   0.0666667), wk =   0.0005926
        k(  671) = (   0.2000000   0.4666667   0.1333333), wk =   0.0005926
        k(  672) = (   0.2000000   0.4666667   0.2000000), wk =   0.0005926
        k(  673) = (   0.2000000   0.4666667   0.2666667), wk =   0.0005926
        k(  674) = (   0.2000000   0.4666667   0.3333333), wk =   0.0005926
        k(  675) = (   0.2000000   0.4666667   0.4000000), wk =   0.0005926
        k(  676) = (   0.2000000   0.4666667   0.4666667), wk =   0.0005926
        k(  677) = (   0.2000000   0.4666667  -0.4666667), wk =   0.0005926
        k(  678) = (   0.2000000   0.4666667  -0.4000000), wk =   0.0005926
        k(  679) = (   0.2000000   0.4666667  -0.3333333), wk =   0.0005926
        k(  680) = (   0.2000000   0.4666667  -0.2666667), wk =   0.0005926
        k(  681) = (   0.2000000   0.4666667  -0.2000000), wk =   0.0005926
        k(  682) = (   0.2000000   0.4666667  -0.1333333), wk =   0.0005926
        k(  683) = (   0.2000000   0.4666667  -0.0666667), wk =   0.0005926
        k(  684) = (   0.2000000  -0.4666667   0.0000000), wk =   0.0005926
        k(  685) = (   0.2000000  -0.4666667   0.0666667), wk =   0.0005926
        k(  686) = (   0.2000000  -0.4666667   0.1333333), wk =   0.0005926
        k(  687) = (   0.2000000  -0.4666667   0.2000000), wk =   0.0005926
        k(  688) = (   0.2000000  -0.4666667   0.2666667), wk =   0.0005926
        k(  689) = (   0.2000000  -0.4666667   0.3333333), wk =   0.0005926
        k(  690) = (   0.2000000  -0.4666667   0.4000000), wk =   0.0005926
        k(  691) = (   0.2000000  -0.4666667   0.4666667), wk =   0.0005926
        k(  692) = (   0.2000000  -0.4666667  -0.4666667), wk =   0.0005926
        k(  693) = (   0.2000000  -0.4666667  -0.4000000), wk =   0.0005926
        k(  694) = (   0.2000000  -0.4666667  -0.3333333), wk =   0.0005926
        k(  695) = (   0.2000000  -0.4666667  -0.2666667), wk =   0.0005926
        k(  696) = (   0.2000000  -0.4666667  -0.2000000), wk =   0.0005926
        k(  697) = (   0.2000000  -0.4666667  -0.1333333), wk =   0.0005926
        k(  698) = (   0.2000000  -0.4666667  -0.0666667), wk =   0.0005926
        k(  699) = (   0.2000000  -0.4000000   0.0000000), wk =   0.0005926
        k(  700) = (   0.2000000  -0.4000000   0.0666667), wk =   0.0005926
        k(  701) = (   0.2000000  -0.4000000   0.1333333), wk =   0.0005926
        k(  702) = (   0.2000000  -0.4000000   0.2000000), wk =   0.0005926
        k(  703) = (   0.2000000  -0.4000000   0.2666667), wk =   0.0005926
        k(  704) = (   0.2000000  -0.4000000   0.3333333), wk =   0.0005926
        k(  705) = (   0.2000000  -0.4000000   0.4000000), wk =   0.0005926
        k(  706) = (   0.2000000  -0.4000000   0.4666667), wk =   0.0005926
        k(  707) = (   0.2000000  -0.4000000  -0.4666667), wk =   0.0005926
        k(  708) = (   0.2000000  -0.4000000  -0.4000000), wk =   0.0005926
        k(  709) = (   0.2000000  -0.4000000  -0.3333333), wk =   0.0005926
        k(  710) = (   0.2000000  -0.4000000  -0.2666667), wk =   0.0005926
        k(  711) = (   0.2000000  -0.4000000  -0.2000000), wk =   0.0005926
        k(  712) = (   0.2000000  -0.4000000  -0.1333333), wk =   0.0005926
        k(  713) = (   0.2000000  -0.4000000  -0.0666667), wk =   0.0005926
        k(  714) = (   0.2000000  -0.3333333   0.0000000), wk =   0.0005926
        k(  715) = (   0.2000000  -0.3333333   0.0666667), wk =   0.0005926
        k(  716) = (   0.2000000  -0.3333333   0.1333333), wk =   0.0005926
        k(  717) = (   0.2000000  -0.3333333   0.2000000), wk =   0.0005926
        k(  718) = (   0.2000000  -0.3333333   0.2666667), wk =   0.0005926
        k(  719) = (   0.2000000  -0.3333333   0.3333333), wk =   0.0005926
        k(  720) = (   0.2000000  -0.3333333   0.4000000), wk =   0.0005926
        k(  721) = (   0.2000000  -0.3333333   0.4666667), wk =   0.0005926
        k(  722) = (   0.2000000  -0.3333333  -0.4666667), wk =   0.0005926
        k(  723) = (   0.2000000  -0.3333333  -0.4000000), wk =   0.0005926
        k(  724) = (   0.2000000  -0.3333333  -0.3333333), wk =   0.0005926
        k(  725) = (   0.2000000  -0.3333333  -0.2666667), wk =   0.0005926
        k(  726) = (   0.2000000  -0.3333333  -0.2000000), wk =   0.0005926
        k(  727) = (   0.2000000  -0.3333333  -0.1333333), wk =   0.0005926
        k(  728) = (   0.2000000  -0.3333333  -0.0666667), wk =   0.0005926
        k(  729) = (   0.2000000  -0.2666667   0.0000000), wk =   0.0005926
        k(  730) = (   0.2000000  -0.2666667   0.0666667), wk =   0.0005926
        k(  731) = (   0.2000000  -0.2666667   0.1333333), wk =   0.0005926
        k(  732) = (   0.2000000  -0.2666667   0.2000000), wk =   0.0005926
        k(  733) = (   0.2000000  -0.2666667   0.2666667), wk =   0.0005926
        k(  734) = (   0.2000000  -0.2666667   0.3333333), wk =   0.0005926
        k(  735) = (   0.2000000  -0.2666667   0.4000000), wk =   0.0005926
        k(  736) = (   0.2000000  -0.2666667   0.4666667), wk =   0.0005926
        k(  737) = (   0.2000000  -0.2666667  -0.4666667), wk =   0.0005926
        k(  738) = (   0.2000000  -0.2666667  -0.4000000), wk =   0.0005926
        k(  739) = (   0.2000000  -0.2666667  -0.3333333), wk =   0.0005926
        k(  740) = (   0.2000000  -0.2666667  -0.2666667), wk =   0.0005926
        k(  741) = (   0.2000000  -0.2666667  -0.2000000), wk =   0.0005926
        k(  742) = (   0.2000000  -0.2666667  -0.1333333), wk =   0.0005926
        k(  743) = (   0.2000000  -0.2666667  -0.0666667), wk =   0.0005926
        k(  744) = (   0.2000000  -0.2000000   0.0000000), wk =   0.0005926
        k(  745) = (   0.2000000  -0.2000000   0.0666667), wk =   0.0005926
        k(  746) = (   0.2000000  -0.2000000   0.1333333), wk =   0.0005926
        k(  747) = (   0.2000000  -0.2000000   0.2000000), wk =   0.0005926
        k(  748) = (   0.2000000  -0.2000000   0.2666667), wk =   0.0005926
        k(  749) = (   0.2000000  -0.2000000   0.3333333), wk =   0.0005926
        k(  750) = (   0.2000000  -0.2000000   0.4000000), wk =   0.0005926
        k(  751) = (   0.2000000  -0.2000000   0.4666667), wk =   0.0005926
        k(  752) = (   0.2000000  -0.2000000  -0.4666667), wk =   0.0005926
        k(  753) = (   0.2000000  -0.2000000  -0.4000000), wk =   0.0005926
        k(  754) = (   0.2000000  -0.2000000  -0.3333333), wk =   0.0005926
        k(  755) = (   0.2000000  -0.2000000  -0.2666667), wk =   0.0005926
        k(  756) = (   0.2000000  -0.2000000  -0.2000000), wk =   0.0005926
        k(  757) = (   0.2000000  -0.2000000  -0.1333333), wk =   0.0005926
        k(  758) = (   0.2000000  -0.2000000  -0.0666667), wk =   0.0005926
        k(  759) = (   0.2000000  -0.1333333   0.0000000), wk =   0.0005926
        k(  760) = (   0.2000000  -0.1333333   0.0666667), wk =   0.0005926
        k(  761) = (   0.2000000  -0.1333333   0.1333333), wk =   0.0005926
        k(  762) = (   0.2000000  -0.1333333   0.2000000), wk =   0.0005926
        k(  763) = (   0.2000000  -0.1333333   0.2666667), wk =   0.0005926
        k(  764) = (   0.2000000  -0.1333333   0.3333333), wk =   0.0005926
        k(  765) = (   0.2000000  -0.1333333   0.4000000), wk =   0.0005926
        k(  766) = (   0.2000000  -0.1333333   0.4666667), wk =   0.0005926
        k(  767) = (   0.2000000  -0.1333333  -0.4666667), wk =   0.0005926
        k(  768) = (   0.2000000  -0.1333333  -0.4000000), wk =   0.0005926
        k(  769) = (   0.2000000  -0.1333333  -0.3333333), wk =   0.0005926
        k(  770) = (   0.2000000  -0.1333333  -0.2666667), wk =   0.0005926
        k(  771) = (   0.2000000  -0.1333333  -0.2000000), wk =   0.0005926
        k(  772) = (   0.2000000  -0.1333333  -0.1333333), wk =   0.0005926
        k(  773) = (   0.2000000  -0.1333333  -0.0666667), wk =   0.0005926
        k(  774) = (   0.2000000  -0.0666667   0.0000000), wk =   0.0005926
        k(  775) = (   0.2000000  -0.0666667   0.0666667), wk =   0.0005926
        k(  776) = (   0.2000000  -0.0666667   0.1333333), wk =   0.0005926
        k(  777) = (   0.2000000  -0.0666667   0.2000000), wk =   0.0005926
        k(  778) = (   0.2000000  -0.0666667   0.2666667), wk =   0.0005926
        k(  779) = (   0.2000000  -0.0666667   0.3333333), wk =   0.0005926
        k(  780) = (   0.2000000  -0.0666667   0.4000000), wk =   0.0005926
        k(  781) = (   0.2000000  -0.0666667   0.4666667), wk =   0.0005926
        k(  782) = (   0.2000000  -0.0666667  -0.4666667), wk =   0.0005926
        k(  783) = (   0.2000000  -0.0666667  -0.4000000), wk =   0.0005926
        k(  784) = (   0.2000000  -0.0666667  -0.3333333), wk =   0.0005926
        k(  785) = (   0.2000000  -0.0666667  -0.2666667), wk =   0.0005926
        k(  786) = (   0.2000000  -0.0666667  -0.2000000), wk =   0.0005926
        k(  787) = (   0.2000000  -0.0666667  -0.1333333), wk =   0.0005926
        k(  788) = (   0.2000000  -0.0666667  -0.0666667), wk =   0.0005926
        k(  789) = (   0.2666667   0.0000000   0.0000000), wk =   0.0005926
        k(  790) = (   0.2666667   0.0000000   0.0666667), wk =   0.0005926
        k(  791) = (   0.2666667   0.0000000   0.1333333), wk =   0.0005926
        k(  792) = (   0.2666667   0.0000000   0.2000000), wk =   0.0005926
        k(  793) = (   0.2666667   0.0000000   0.2666667), wk =   0.0005926
        k(  794) = (   0.2666667   0.0000000   0.3333333), wk =   0.0005926
        k(  795) = (   0.2666667   0.0000000   0.4000000), wk =   0.0005926
        k(  796) = (   0.2666667   0.0000000   0.4666667), wk =   0.0005926
        k(  797) = (   0.2666667   0.0000000  -0.4666667), wk =   0.0005926
        k(  798) = (   0.2666667   0.0000000  -0.4000000), wk =   0.0005926
        k(  799) = (   0.2666667   0.0000000  -0.3333333), wk =   0.0005926
        k(  800) = (   0.2666667   0.0000000  -0.2666667), wk =   0.0005926
        k(  801) = (   0.2666667   0.0000000  -0.2000000), wk =   0.0005926
        k(  802) = (   0.2666667   0.0000000  -0.1333333), wk =   0.0005926
        k(  803) = (   0.2666667   0.0000000  -0.0666667), wk =   0.0005926
        k(  804) = (   0.2666667   0.0666667   0.0000000), wk =   0.0005926
        k(  805) = (   0.2666667   0.0666667   0.0666667), wk =   0.0005926
        k(  806) = (   0.2666667   0.0666667   0.1333333), wk =   0.0005926
        k(  807) = (   0.2666667   0.0666667   0.2000000), wk =   0.0005926
        k(  808) = (   0.2666667   0.0666667   0.2666667), wk =   0.0005926
        k(  809) = (   0.2666667   0.0666667   0.3333333), wk =   0.0005926
        k(  810) = (   0.2666667   0.0666667   0.4000000), wk =   0.0005926
        k(  811) = (   0.2666667   0.0666667   0.4666667), wk =   0.0005926
        k(  812) = (   0.2666667   0.0666667  -0.4666667), wk =   0.0005926
        k(  813) = (   0.2666667   0.0666667  -0.4000000), wk =   0.0005926
        k(  814) = (   0.2666667   0.0666667  -0.3333333), wk =   0.0005926
        k(  815) = (   0.2666667   0.0666667  -0.2666667), wk =   0.0005926
        k(  816) = (   0.2666667   0.0666667  -0.2000000), wk =   0.0005926
        k(  817) = (   0.2666667   0.0666667  -0.1333333), wk =   0.0005926
        k(  818) = (   0.2666667   0.0666667  -0.0666667), wk =   0.0005926
        k(  819) = (   0.2666667   0.1333333   0.0000000), wk =   0.0005926
        k(  820) = (   0.2666667   0.1333333   0.0666667), wk =   0.0005926
        k(  821) = (   0.2666667   0.1333333   0.1333333), wk =   0.0005926
        k(  822) = (   0.2666667   0.1333333   0.2000000), wk =   0.0005926
        k(  823) = (   0.2666667   0.1333333   0.2666667), wk =   0.0005926
        k(  824) = (   0.2666667   0.1333333   0.3333333), wk =   0.0005926
        k(  825) = (   0.2666667   0.1333333   0.4000000), wk =   0.0005926
        k(  826) = (   0.2666667   0.1333333   0.4666667), wk =   0.0005926
        k(  827) = (   0.2666667   0.1333333  -0.4666667), wk =   0.0005926
        k(  828) = (   0.2666667   0.1333333  -0.4000000), wk =   0.0005926
        k(  829) = (   0.2666667   0.1333333  -0.3333333), wk =   0.0005926
        k(  830) = (   0.2666667   0.1333333  -0.2666667), wk =   0.0005926
        k(  831) = (   0.2666667   0.1333333  -0.2000000), wk =   0.0005926
        k(  832) = (   0.2666667   0.1333333  -0.1333333), wk =   0.0005926
        k(  833) = (   0.2666667   0.1333333  -0.0666667), wk =   0.0005926
        k(  834) = (   0.2666667   0.2000000   0.0000000), wk =   0.0005926
        k(  835) = (   0.2666667   0.2000000   0.0666667), wk =   0.0005926
        k(  836) = (   0.2666667   0.2000000   0.1333333), wk =   0.0005926
        k(  837) = (   0.2666667   0.2000000   0.2000000), wk =   0.0005926
        k(  838) = (   0.2666667   0.2000000   0.2666667), wk =   0.0005926
        k(  839) = (   0.2666667   0.2000000   0.3333333), wk =   0.0005926
        k(  840) = (   0.2666667   0.2000000   0.4000000), wk =   0.0005926
        k(  841) = (   0.2666667   0.2000000   0.4666667), wk =   0.0005926
        k(  842) = (   0.2666667   0.2000000  -0.4666667), wk =   0.0005926
        k(  843) = (   0.2666667   0.2000000  -0.4000000), wk =   0.0005926
        k(  844) = (   0.2666667   0.2000000  -0.3333333), wk =   0.0005926
        k(  845) = (   0.2666667   0.2000000  -0.2666667), wk =   0.0005926
        k(  846) = (   0.2666667   0.2000000  -0.2000000), wk =   0.0005926
        k(  847) = (   0.2666667   0.2000000  -0.1333333), wk =   0.0005926
        k(  848) = (   0.2666667   0.2000000  -0.0666667), wk =   0.0005926
        k(  849) = (   0.2666667   0.2666667   0.0000000), wk =   0.0005926
        k(  850) = (   0.2666667   0.2666667   0.0666667), wk =   0.0005926
        k(  851) = (   0.2666667   0.2666667   0.1333333), wk =   0.0005926
        k(  852) = (   0.2666667   0.2666667   0.2000000), wk =   0.0005926
        k(  853) = (   0.2666667   0.2666667   0.2666667), wk =   0.0005926
        k(  854) = (   0.2666667   0.2666667   0.3333333), wk =   0.0005926
        k(  855) = (   0.2666667   0.2666667   0.4000000), wk =   0.0005926
        k(  856) = (   0.2666667   0.2666667   0.4666667), wk =   0.0005926
        k(  857) = (   0.2666667   0.2666667  -0.4666667), wk =   0.0005926
        k(  858) = (   0.2666667   0.2666667  -0.4000000), wk =   0.0005926
        k(  859) = (   0.2666667   0.2666667  -0.3333333), wk =   0.0005926
        k(  860) = (   0.2666667   0.2666667  -0.2666667), wk =   0.0005926
        k(  861) = (   0.2666667   0.2666667  -0.2000000), wk =   0.0005926
        k(  862) = (   0.2666667   0.2666667  -0.1333333), wk =   0.0005926
        k(  863) = (   0.2666667   0.2666667  -0.0666667), wk =   0.0005926
        k(  864) = (   0.2666667   0.3333333   0.0000000), wk =   0.0005926
        k(  865) = (   0.2666667   0.3333333   0.0666667), wk =   0.0005926
        k(  866) = (   0.2666667   0.3333333   0.1333333), wk =   0.0005926
        k(  867) = (   0.2666667   0.3333333   0.2000000), wk =   0.0005926
        k(  868) = (   0.2666667   0.3333333   0.2666667), wk =   0.0005926
        k(  869) = (   0.2666667   0.3333333   0.3333333), wk =   0.0005926
        k(  870) = (   0.2666667   0.3333333   0.4000000), wk =   0.0005926
        k(  871) = (   0.2666667   0.3333333   0.4666667), wk =   0.0005926
        k(  872) = (   0.2666667   0.3333333  -0.4666667), wk =   0.0005926
        k(  873) = (   0.2666667   0.3333333  -0.4000000), wk =   0.0005926
        k(  874) = (   0.2666667   0.3333333  -0.3333333), wk =   0.0005926
        k(  875) = (   0.2666667   0.3333333  -0.2666667), wk =   0.0005926
        k(  876) = (   0.2666667   0.3333333  -0.2000000), wk =   0.0005926
        k(  877) = (   0.2666667   0.3333333  -0.1333333), wk =   0.0005926
        k(  878) = (   0.2666667   0.3333333  -0.0666667), wk =   0.0005926
        k(  879) = (   0.2666667   0.4000000   0.0000000), wk =   0.0005926
        k(  880) = (   0.2666667   0.4000000   0.0666667), wk =   0.0005926
        k(  881) = (   0.2666667   0.4000000   0.1333333), wk =   0.0005926
        k(  882) = (   0.2666667   0.4000000   0.2000000), wk =   0.0005926
        k(  883) = (   0.2666667   0.4000000   0.2666667), wk =   0.0005926
        k(  884) = (   0.2666667   0.4000000   0.3333333), wk =   0.0005926
        k(  885) = (   0.2666667   0.4000000   0.4000000), wk =   0.0005926
        k(  886) = (   0.2666667   0.4000000   0.4666667), wk =   0.0005926
        k(  887) = (   0.2666667   0.4000000  -0.4666667), wk =   0.0005926
        k(  888) = (   0.2666667   0.4000000  -0.4000000), wk =   0.0005926
        k(  889) = (   0.2666667   0.4000000  -0.3333333), wk =   0.0005926
        k(  890) = (   0.2666667   0.4000000  -0.2666667), wk =   0.0005926
        k(  891) = (   0.2666667   0.4000000  -0.2000000), wk =   0.0005926
        k(  892) = (   0.2666667   0.4000000  -0.1333333), wk =   0.0005926
        k(  893) = (   0.2666667   0.4000000  -0.0666667), wk =   0.0005926
        k(  894) = (   0.2666667   0.4666667   0.0000000), wk =   0.0005926
        k(  895) = (   0.2666667   0.4666667   0.0666667), wk =   0.0005926
        k(  896) = (   0.2666667   0.4666667   0.1333333), wk =   0.0005926
        k(  897) = (   0.2666667   0.4666667   0.2000000), wk =   0.0005926
        k(  898) = (   0.2666667   0.4666667   0.2666667), wk =   0.0005926
        k(  899) = (   0.2666667   0.4666667   0.3333333), wk =   0.0005926
        k(  900) = (   0.2666667   0.4666667   0.4000000), wk =   0.0005926
        k(  901) = (   0.2666667   0.4666667   0.4666667), wk =   0.0005926
        k(  902) = (   0.2666667   0.4666667  -0.4666667), wk =   0.0005926
        k(  903) = (   0.2666667   0.4666667  -0.4000000), wk =   0.0005926
        k(  904) = (   0.2666667   0.4666667  -0.3333333), wk =   0.0005926
        k(  905) = (   0.2666667   0.4666667  -0.2666667), wk =   0.0005926
        k(  906) = (   0.2666667   0.4666667  -0.2000000), wk =   0.0005926
        k(  907) = (   0.2666667   0.4666667  -0.1333333), wk =   0.0005926
        k(  908) = (   0.2666667   0.4666667  -0.0666667), wk =   0.0005926
        k(  909) = (   0.2666667  -0.4666667   0.0000000), wk =   0.0005926
        k(  910) = (   0.2666667  -0.4666667   0.0666667), wk =   0.0005926
        k(  911) = (   0.2666667  -0.4666667   0.1333333), wk =   0.0005926
        k(  912) = (   0.2666667  -0.4666667   0.2000000), wk =   0.0005926
        k(  913) = (   0.2666667  -0.4666667   0.2666667), wk =   0.0005926
        k(  914) = (   0.2666667  -0.4666667   0.3333333), wk =   0.0005926
        k(  915) = (   0.2666667  -0.4666667   0.4000000), wk =   0.0005926
        k(  916) = (   0.2666667  -0.4666667   0.4666667), wk =   0.0005926
        k(  917) = (   0.2666667  -0.4666667  -0.4666667), wk =   0.0005926
        k(  918) = (   0.2666667  -0.4666667  -0.4000000), wk =   0.0005926
        k(  919) = (   0.2666667  -0.4666667  -0.3333333), wk =   0.0005926
        k(  920) = (   0.2666667  -0.4666667  -0.2666667), wk =   0.0005926
        k(  921) = (   0.2666667  -0.4666667  -0.2000000), wk =   0.0005926
        k(  922) = (   0.2666667  -0.4666667  -0.1333333), wk =   0.0005926
        k(  923) = (   0.2666667  -0.4666667  -0.0666667), wk =   0.0005926
        k(  924) = (   0.2666667  -0.4000000   0.0000000), wk =   0.0005926
        k(  925) = (   0.2666667  -0.4000000   0.0666667), wk =   0.0005926
        k(  926) = (   0.2666667  -0.4000000   0.1333333), wk =   0.0005926
        k(  927) = (   0.2666667  -0.4000000   0.2000000), wk =   0.0005926
        k(  928) = (   0.2666667  -0.4000000   0.2666667), wk =   0.0005926
        k(  929) = (   0.2666667  -0.4000000   0.3333333), wk =   0.0005926
        k(  930) = (   0.2666667  -0.4000000   0.4000000), wk =   0.0005926
        k(  931) = (   0.2666667  -0.4000000   0.4666667), wk =   0.0005926
        k(  932) = (   0.2666667  -0.4000000  -0.4666667), wk =   0.0005926
        k(  933) = (   0.2666667  -0.4000000  -0.4000000), wk =   0.0005926
        k(  934) = (   0.2666667  -0.4000000  -0.3333333), wk =   0.0005926
        k(  935) = (   0.2666667  -0.4000000  -0.2666667), wk =   0.0005926
        k(  936) = (   0.2666667  -0.4000000  -0.2000000), wk =   0.0005926
        k(  937) = (   0.2666667  -0.4000000  -0.1333333), wk =   0.0005926
        k(  938) = (   0.2666667  -0.4000000  -0.0666667), wk =   0.0005926
        k(  939) = (   0.2666667  -0.3333333   0.0000000), wk =   0.0005926
        k(  940) = (   0.2666667  -0.3333333   0.0666667), wk =   0.0005926
        k(  941) = (   0.2666667  -0.3333333   0.1333333), wk =   0.0005926
        k(  942) = (   0.2666667  -0.3333333   0.2000000), wk =   0.0005926
        k(  943) = (   0.2666667  -0.3333333   0.2666667), wk =   0.0005926
        k(  944) = (   0.2666667  -0.3333333   0.3333333), wk =   0.0005926
        k(  945) = (   0.2666667  -0.3333333   0.4000000), wk =   0.0005926
        k(  946) = (   0.2666667  -0.3333333   0.4666667), wk =   0.0005926
        k(  947) = (   0.2666667  -0.3333333  -0.4666667), wk =   0.0005926
        k(  948) = (   0.2666667  -0.3333333  -0.4000000), wk =   0.0005926
        k(  949) = (   0.2666667  -0.3333333  -0.3333333), wk =   0.0005926
        k(  950) = (   0.2666667  -0.3333333  -0.2666667), wk =   0.0005926
        k(  951) = (   0.2666667  -0.3333333  -0.2000000), wk =   0.0005926
        k(  952) = (   0.2666667  -0.3333333  -0.1333333), wk =   0.0005926
        k(  953) = (   0.2666667  -0.3333333  -0.0666667), wk =   0.0005926
        k(  954) = (   0.2666667  -0.2666667   0.0000000), wk =   0.0005926
        k(  955) = (   0.2666667  -0.2666667   0.0666667), wk =   0.0005926
        k(  956) = (   0.2666667  -0.2666667   0.1333333), wk =   0.0005926
        k(  957) = (   0.2666667  -0.2666667   0.2000000), wk =   0.0005926
        k(  958) = (   0.2666667  -0.2666667   0.2666667), wk =   0.0005926
        k(  959) = (   0.2666667  -0.2666667   0.3333333), wk =   0.0005926
        k(  960) = (   0.2666667  -0.2666667   0.4000000), wk =   0.0005926
        k(  961) = (   0.2666667  -0.2666667   0.4666667), wk =   0.0005926
        k(  962) = (   0.2666667  -0.2666667  -0.4666667), wk =   0.0005926
        k(  963) = (   0.2666667  -0.2666667  -0.4000000), wk =   0.0005926
        k(  964) = (   0.2666667  -0.2666667  -0.3333333), wk =   0.0005926
        k(  965) = (   0.2666667  -0.2666667  -0.2666667), wk =   0.0005926
        k(  966) = (   0.2666667  -0.2666667  -0.2000000), wk =   0.0005926
        k(  967) = (   0.2666667  -0.2666667  -0.1333333), wk =   0.0005926
        k(  968) = (   0.2666667  -0.2666667  -0.0666667), wk =   0.0005926
        k(  969) = (   0.2666667  -0.2000000   0.0000000), wk =   0.0005926
        k(  970) = (   0.2666667  -0.2000000   0.0666667), wk =   0.0005926
        k(  971) = (   0.2666667  -0.2000000   0.1333333), wk =   0.0005926
        k(  972) = (   0.2666667  -0.2000000   0.2000000), wk =   0.0005926
        k(  973) = (   0.2666667  -0.2000000   0.2666667), wk =   0.0005926
        k(  974) = (   0.2666667  -0.2000000   0.3333333), wk =   0.0005926
        k(  975) = (   0.2666667  -0.2000000   0.4000000), wk =   0.0005926
        k(  976) = (   0.2666667  -0.2000000   0.4666667), wk =   0.0005926
[...]

     occupation numbers 
     1.0000   1.0000   1.0000   1.0000   1.0000   1.0000   1.0000   1.0000
     1.0000   1.0000   1.0000   1.0000   1.0000   1.0000   0.0000   0.0000
     0.0000   0.0000   0.0000   0.0000

          k = 0.4667-0.2000-0.4000 (  3253 PWs)   bands (ev):

   -66.0472 -66.0424 -32.5518 -32.5476 -32.2987 -32.2739 -32.1252 -32.1244
    15.7600  15.8927  17.1825  17.2091  18.2068  18.2684  20.6645  20.7106
    21.0440  21.0853  23.3970  23.9566

     occupation numbers 
     1.0000   1.0000   1.0000   1.0000   1.0000   1.0000   1.0000   1.0000
     1.0000   1.0000   1.0000   1.0000   1.0000   1.0000   0.0000   0.0000
     0.0000   0.0000   0.0000   0.0000

          k = 0.4667-0.2000-0.3333 (  3252 PWs)   bands (ev):

   -66.0498 -66.0421 -32.5383 -32.5309 -32.3090 -32.2718 -32.1271 -32.1234
    15.7184  15.9759  17.2780  17.2978  17.9121  17.9812  20.5299  20.5841
    21.0539  21.0921  23.0376  23.7684

     occupation numbers 
     1.0000   1.0000   1.0000   1.0000   1.0000   1.0000   1.0000   1.0000
     1.0000   1.0000   1.0000   1.0000   1.0000   1.0000   0.0000   0.0000
     0.0000   0.0000   0.0000   0.0000

          k = 0.4667-0.2000-0.2667 (  3260 PWs)   bands (ev):

   -66.0526 -66.0423 -32.5225 -32.5108 -32.3141 -32.2697 -32.1324 -32.1238
    15.5895  16.0034  17.3069  17.3600  17.7947  17.8763  20.3486  20.3951
    21.0579  21.0800  22.6412  23.4244

     occupation numbers 
     1.0000   1.0000   1.0000   1.0000   1.0000   1.0000   1.0000   1.0000
     1.0000   1.0000   1.0000   1.0000   1.0000   1.0000   0.0000   0.0000
     0.0000   0.0000   0.0000   0.0000

          k = 0.4667-0.2000-0.2000 (  3257 PWs)   bands (ev):

   -66.0553 -66.0428 -32.5091 -32.4915 -32.3103 -32.2647 -32.1421 -32.1271
    15.3594  15.8953  17.3173  17.4462  17.9002  17.9976  20.1446  20.1813
    21.0399  21.0630  22.2325  23.0058

     occupation numbers 
     1.0000   1.0000   1.0000   1.0000   1.0000   1.0000   1.0000   1.0000
     1.0000   1.0000   1.0000   1.0000   1.0000   1.0000   0.0000   0.0000
     0.0000   0.0000   0.0000   0.0000

          k = 0.4667-0.2000-0.1333 (  3261 PWs)   bands (ev):

   -66.0574 -66.0433 -32.5010 -32.4767 -32.2976 -32.2558 -32.1556 -32.1333
    15.1077  15.6973  17.4608  17.6154  18.0522  18.1486  19.9587  19.9954
    20.9830  21.0596  21.8690  22.5872

     occupation numbers 
     1.0000   1.0000   1.0000   1.0000   1.0000   1.0000   1.0000   1.0000
     1.0000   1.0000   1.0000   1.0000   1.0000   1.0000   0.0000   0.0000
     0.0000   0.0000   0.0000   0.0000

          k = 0.4667-0.2000-0.0667 (  3266 PWs)   bands (ev):

   -66.0588 -66.0437 -32.4976 -32.4680 -32.2816 -32.2459 -32.1696 -32.1404
    14.9235  15.5318  17.6552  17.8333  18.1158  18.2191  19.8396  19.8936
    20.8813  21.0781  21.6323  22.2546

     occupation numbers 
     1.0000   1.0000   1.0000   1.0000   1.0000   1.0000   1.0000   1.0000
     1.0000   1.0000   1.0000   1.0000   1.0000   1.0000   0.0000   0.0000
     0.0000   0.0000   0.0000   0.0000

          k = 0.4667-0.1333 0.0000 (  3264 PWs)   bands (ev):

   -66.0617 -66.0443 -32.4478 -32.4119 -32.2772 -32.2407 -32.2163 -32.1795
    14.6805  15.3844  17.7197  18.0527  18.3999  18.6013  19.5055  19.5169
    20.4335  20.7295  21.5854  22.0547

     occupation numbers 
     1.0000   1.0000   1.0000   1.0000   1.0000   1.0000   1.0000   1.0000
     1.0000   1.0000   1.0000   1.0000   1.0000   1.0000  -0.0225   0.0000
     0.0000   0.0000   0.0000   0.0000

          k = 0.4667-0.1333 0.0667 (  3257 PWs)   bands (ev):

   -66.0612 -66.0441 -32.4543 -32.4204 -32.2847 -32.2452 -32.2039 -32.1706
    14.7394  15.4361  17.6480  17.9360  18.3883  18.5534  19.5494  19.5634
    20.5493  20.7911  21.6092  22.1247

     occupation numbers 
     1.0000   1.0000   1.0000   1.0000   1.0000   1.0000   1.0000   1.0000
     1.0000   1.0000   1.0000   1.0000   1.0000   1.0000  -0.0254   0.0000
     0.0000   0.0000   0.0000   0.0000

          k = 0.4667-0.1333 0.1333 (  3266 PWs)   bands (ev):

   -66.0597 -66.0438 -32.4732 -32.4439 -32.2946 -32.2520 -32.1798 -32.1521
    14.8992  15.5662  17.5150  17.7450  18.2522  18.3838  19.7242  19.7278
    20.7856  20.9246  21.6941  22.3189

     occupation numbers 
     1.0000   1.0000   1.0000   1.0000   1.0000   1.0000   1.0000   1.0000
     1.0000   1.0000   1.0000   1.0000   1.0000   1.0000   0.0000   0.0000
     0.0000   0.0000   0.0000   0.0000

          k = 0.4667-0.1333 0.2000 (  3261 PWs)   bands (ev):

   -66.0574 -66.0433 -32.5010 -32.4767 -32.2976 -32.2558 -32.1556 -32.1333
    15.1077  15.6973  17.4608  17.6154  18.0522  18.1486  19.9587  19.9954
    20.9830  21.0596  21.8690  22.5872

     occupation numbers 
     1.0000   1.0000   1.0000   1.0000   1.0000   1.0000   1.0000   1.0000
     1.0000   1.0000   1.0000   1.0000   1.0000   1.0000   0.0000   0.0000
     0.0000   0.0000   0.0000   0.0000

          k = 0.4667-0.1333 0.2667 (  3251 PWs)   bands (ev):

   -66.0546 -66.0430 -32.5315 -32.5123 -32.2940 -32.2573 -32.1348 -32.1177
    15.2870  15.7367  17.5133  17.5277  17.9926  18.0117  20.1991  20.2663
    21.0783  21.1617  22.1212  22.8558

     occupation numbers 
     1.0000   1.0000   1.0000   1.0000   1.0000   1.0000   1.0000   1.0000
     1.0000   1.0000   1.0000   1.0000   1.0000   1.0000   0.0000   0.0000
     0.0000   0.0000   0.0000   0.0000

          k = 0.4667-0.1333 0.3333 (  3255 PWs)   bands (ev):

   -66.0517 -66.0430 -32.5590 -32.5449 -32.2868 -32.2582 -32.1186 -32.1067
    15.3869  15.6780  17.3860  17.4380  18.2355  18.2374  20.4069  20.4879
    21.0918  21.2079  22.3876  23.0461

     occupation numbers 
     1.0000   1.0000   1.0000   1.0000   1.0000   1.0000   1.0000   1.0000
     1.0000   1.0000   1.0000   1.0000   1.0000   1.0000   0.0000   0.0000
     0.0000   0.0000   0.0000   0.0000

          k = 0.4667-0.1333 0.4000 (  3252 PWs)   bands (ev):

   -66.0488 -66.0435 -32.5788 -32.5702 -32.2782 -32.2601 -32.1073 -32.1003
    15.4267  15.5847  17.2597  17.2997  18.6382  18.6426  20.5638  20.6304
    21.0591  21.1783  22.6255  23.0964

     occupation numbers 
     1.0000   1.0000   1.0000   1.0000   1.0000   1.0000   1.0000   1.0000
     1.0000   1.0000   1.0000   1.0000   1.0000   1.0000   0.0000   0.0000
     0.0000   0.0000   0.0000   0.0000

          k = 0.4667-0.1333 0.4667 (  3249 PWs)   bands (ev):

   -66.0464 -66.0446 -32.5880 -32.5851 -32.2702 -32.2640 -32.1006 -32.0983
    15.4550  15.5048  17.1970  17.2111  18.9485  18.9489  20.6587  20.6839
    21.0369  21.0911  22.8309  23.0035

     occupation numbers 
     1.0000   1.0000   1.0000   1.0000   1.0000   1.0000   1.0000   1.0000
     1.0000   1.0000   1.0000   1.0000   1.0031   1.0053   0.0000   0.0000
     0.0000   0.0000   0.0000   0.0000

          k = 0.4667-0.1333-0.4667 (  3249 PWs)   bands (ev):

   -66.0464 -66.0446 -32.5880 -32.5851 -32.2702 -32.2640 -32.1006 -32.0983
    15.4550  15.5048  17.1970  17.2111  18.9485  18.9489  20.6587  20.6839
    21.0369  21.0911  22.8309  23.0035

     occupation numbers 
     1.0000   1.0000   1.0000   1.0000   1.0000   1.0000   1.0000   1.0000
     1.0000   1.0000   1.0000   1.0000   1.0147   1.0135   0.0000   0.0000
     0.0000   0.0000   0.0000   0.0000

          k = 0.4667-0.1333-0.4000 (  3252 PWs)   bands (ev):

   -66.0488 -66.0435 -32.5788 -32.5702 -32.2782 -32.2601 -32.1073 -32.1003
    15.4267  15.5847  17.2597  17.2997  18.6382  18.6426  20.5638  20.6304
    21.0591  21.1783  22.6255  23.0964

     occupation numbers 
     1.0000   1.0000   1.0000   1.0000   1.0000   1.0000   1.0000   1.0000
     1.0000   1.0000   1.0000   1.0000   1.0067   1.0120   0.0000   0.0000
     0.0000   0.0000   0.0000   0.0000

          k = 0.4667-0.1333-0.3333 (  3255 PWs)   bands (ev):

   -66.0517 -66.0430 -32.5590 -32.5449 -32.2868 -32.2582 -32.1186 -32.1067
    15.3869  15.6780  17.3860  17.4380  18.2355  18.2374  20.4069  20.4879
    21.0918  21.2079  22.3876  23.0461

     occupation numbers 
     1.0000   1.0000   1.0000   1.0000   1.0000   1.0000   1.0000   1.0000
     1.0000   1.0000   1.0000   1.0000   1.0000   1.0000   0.0000   0.0000
     0.0000   0.0000   0.0000   0.0000

          k = 0.4667-0.1333-0.2667 (  3251 PWs)   bands (ev):

   -66.0546 -66.0430 -32.5315 -32.5123 -32.2940 -32.2573 -32.1348 -32.1177
    15.2870  15.7367  17.5133  17.5277  17.9926  18.0117  20.1991  20.2663
    21.0783  21.1617  22.1212  22.8558

     occupation numbers 
     1.0000   1.0000   1.0000   1.0000   1.0000   1.0000   1.0000   1.0000
     1.0000   1.0000   1.0000   1.0000   1.0000   1.0000   0.0000   0.0000
     0.0000   0.0000   0.0000   0.0000

          k = 0.4667-0.1333-0.2000 (  3261 PWs)   bands (ev):

   -66.0574 -66.0433 -32.5010 -32.4767 -32.2976 -32.2558 -32.1556 -32.1333
    15.1077  15.6973  17.4608  17.6154  18.0522  18.1486  19.9587  19.9954
    20.9830  21.0596  21.8690  22.5872

     occupation numbers 
     1.0000   1.0000   1.0000   1.0000   1.0000   1.0000   1.0000   1.0000
     1.0000   1.0000   1.0000   1.0000   1.0000   1.0000   0.0000   0.0000
     0.0000   0.0000   0.0000   0.0000

          k = 0.4667-0.1333-0.1333 (  3266 PWs)   bands (ev):

   -66.0597 -66.0438 -32.4732 -32.4439 -32.2946 -32.2520 -32.1798 -32.1521
    14.8992  15.5662  17.5150  17.7450  18.2522  18.3838  19.7242  19.7278
    20.7856  20.9246  21.6941  22.3189

     occupation numbers 
     1.0000   1.0000   1.0000   1.0000   1.0000   1.0000   1.0000   1.0000
     1.0000   1.0000   1.0000   1.0000   1.0000   1.0000   0.0000   0.0000
     0.0000   0.0000   0.0000   0.0000

          k = 0.4667-0.1333-0.0667 (  3257 PWs)   bands (ev):

   -66.0612 -66.0441 -32.4543 -32.4204 -32.2847 -32.2452 -32.2039 -32.1706
    14.7394  15.4361  17.6480  17.9360  18.3883  18.5534  19.5494  19.5634
    20.5493  20.7911  21.6092  22.1247

     occupation numbers 
     1.0000   1.0000   1.0000   1.0000   1.0000   1.0000   1.0000   1.0000
     1.0000   1.0000   1.0000   1.0000   1.0000   1.0000   0.0000   0.0000
     0.0000   0.0000   0.0000   0.0000

          k = 0.4667-0.0667 0.0000 (  3259 PWs)   bands (ev):

   -66.0632 -66.0446 -32.4006 -32.3619 -32.2794 -32.2570 -32.2403 -32.2179
    14.5414  15.2859  17.8119  18.2436  18.7453  18.9704  19.1388  19.2684
    20.0679  20.3703  21.5957  21.9962

     occupation numbers 
     1.0000   1.0000   1.0000   1.0000   1.0000   1.0000   1.0000   1.0000
     1.0000   1.0000   1.0000   1.0000   1.0000   1.0000   0.6765   0.0192
     0.0000   0.0000   0.0000   0.0000

          k = 0.4667-0.0667 0.0667 (  3264 PWs)   bands (ev):

   -66.0627 -66.0445 -32.4170 -32.3798 -32.2840 -32.2433 -32.2377 -32.2012
    14.5952  15.3298  17.7489  18.1197  18.6606  18.8544  19.2457  19.3394
    20.2250  20.5073  21.5989  22.0301

     occupation numbers 
     1.0000   1.0000   1.0000   1.0000   1.0000   1.0000   1.0000   1.0000
     1.0000   1.0000   1.0000   1.0000   1.0000   1.0000   0.1598  -0.0063
     0.0000   0.0000   0.0000   0.0000

          k = 0.4667-0.0667 0.1333 (  3257 PWs)   bands (ev):

   -66.0612 -66.0441 -32.4543 -32.4204 -32.2847 -32.2452 -32.2039 -32.1706
    14.7394  15.4361  17.6480  17.9360  18.3884  18.5534  19.5494  19.5634
    20.5493  20.7911  21.6092  22.1247

     occupation numbers 
     1.0000   1.0000   1.0000   1.0000   1.0000   1.0000   1.0000   1.0000
     1.0000   1.0000   1.0000   1.0000   1.0000   1.0000  -0.0254   0.0000
     0.0000   0.0000   0.0000   0.0000

          k = 0.4667-0.0667 0.2000 (  3266 PWs)   bands (ev):

   -66.0588 -66.0437 -32.4976 -32.4680 -32.2816 -32.2459 -32.1696 -32.1404
    14.9235  15.5318  17.6552  17.8333  18.1158  18.2191  19.8396  19.8936
    20.8813  21.0781  21.6323  22.2546

     occupation numbers 
     1.0000   1.0000   1.0000   1.0000   1.0000   1.0000   1.0000   1.0000
     1.0000   1.0000   1.0000   1.0000   1.0000   1.0000   0.0000   0.0000
     0.0000   0.0000   0.0000   0.0000

          k = 0.4667-0.0667 0.2667 (  3262 PWs)   bands (ev):

   -66.0560 -66.0435 -32.5386 -32.5143 -32.2764 -32.2467 -32.1393 -32.1151
    15.0795  15.5445  17.6783  17.7384  18.0557  18.1382  20.1037  20.2028
    21.1211  21.3029  21.6939  22.3705

     occupation numbers 
     1.0000   1.0000   1.0000   1.0000   1.0000   1.0000   1.0000   1.0000
     1.0000   1.0000   1.0000   1.0000   1.0000   1.0000   0.0000   0.0000
     0.0000   0.0000   0.0000   0.0000

          k = 0.4667-0.0667 0.3333 (  3259 PWs)   bands (ev):

   -66.0529 -66.0436 -32.5724 -32.5544 -32.2703 -32.2480 -32.1146 -32.0966
    15.1689  15.4767  17.4682  17.5515  18.4207  18.5022  20.3276  20.4397
    21.1876  21.4222  21.8270  22.4108

     occupation numbers 
     1.0000   1.0000   1.0000   1.0000   1.0000   1.0000   1.0000   1.0000
     1.0000   1.0000   1.0000   1.0000   1.0000   1.0000   0.0000   0.0000
     0.0000   0.0000   0.0000   0.0000

          k = 0.4667-0.0667 0.4000 (  3254 PWs)   bands (ev):

   -66.0499 -66.0442 -32.5957 -32.5845 -32.2641 -32.2503 -32.0966 -32.0854
    15.2103  15.3811  17.3163  17.3692  18.9408  19.0148  20.4976  20.5855
    21.1084  21.3819  21.9880  22.3505

     occupation numbers 
     1.0000   1.0000   1.0000   1.0000   1.0000   1.0000   1.0000   1.0000
     1.0000   1.0000   1.0000   1.0000   1.0200   1.0055   0.0000   0.0000
     0.0000   0.0000   0.0000   0.0000

          k = 0.4667-0.0667 0.4667 (  3241 PWs)   bands (ev):

   -66.0474 -66.0454 -32.6060 -32.6022 -32.2585 -32.2538 -32.0855 -32.0817
    15.2440  15.2985  17.2460  17.2639  19.3716  19.4195  20.6046  20.6377
    21.0307  21.1739  22.1267  22.2428

     occupation numbers 
     1.0000   1.0000   1.0000   1.0000   1.0000   1.0000   1.0000   1.0000
     1.0000   1.0000   1.0000   1.0000   0.4585   0.2908   0.0000   0.0000
     0.0000   0.0000   0.0000   0.0000

          k = 0.4667-0.0667-0.4667 (  3241 PWs)   bands (ev):

   -66.0474 -66.0454 -32.6060 -32.6022 -32.2585 -32.2538 -32.0855 -32.0817
    15.2440  15.2985  17.2460  17.2639  19.3716  19.4195  20.6046  20.6377
    21.0307  21.1739  22.1267  22.2428

     occupation numbers 
     1.0000   1.0000   1.0000   1.0000   1.0000   1.0000   1.0000   1.0000
     1.0000   1.0000   1.0000   1.0000   0.4555   0.2898   0.0000   0.0000
     0.0000   0.0000   0.0000   0.0000

          k = 0.4667-0.0667-0.4000 (  3254 PWs)   bands (ev):

   -66.0499 -66.0442 -32.5957 -32.5845 -32.2641 -32.2503 -32.0966 -32.0854
    15.2103  15.3811  17.3163  17.3692  18.9408  19.0148  20.4976  20.5855
    21.1084  21.3819  21.9880  22.3505

     occupation numbers 
     1.0000   1.0000   1.0000   1.0000   1.0000   1.0000   1.0000   1.0000
     1.0000   1.0000   1.0000   1.0000   1.0107   0.9845   0.0000   0.0000
     0.0000   0.0000   0.0000   0.0000

          k = 0.4667-0.0667-0.3333 (  3259 PWs)   bands (ev):

   -66.0529 -66.0436 -32.5724 -32.5544 -32.2703 -32.2480 -32.1146 -32.0966
    15.1689  15.4767  17.4682  17.5515  18.4207  18.5022  20.3276  20.4397
    21.1876  21.4222  21.8270  22.4108

     occupation numbers 
     1.0000   1.0000   1.0000   1.0000   1.0000   1.0000   1.0000   1.0000
     1.0000   1.0000   1.0000   1.0000   1.0000   1.0000   0.0000   0.0000
     0.0000   0.0000   0.0000   0.0000

          k = 0.4667-0.0667-0.2667 (  3262 PWs)   bands (ev):

   -66.0560 -66.0435 -32.5386 -32.5143 -32.2764 -32.2467 -32.1393 -32.1151
    15.0795  15.5445  17.6783  17.7384  18.0557  18.1382  20.1037  20.2028
    21.1211  21.3029  21.6939  22.3705

     occupation numbers 
     1.0000   1.0000   1.0000   1.0000   1.0000   1.0000   1.0000   1.0000
     1.0000   1.0000   1.0000   1.0000   1.0000   1.0000   0.0000   0.0000
     0.0000   0.0000   0.0000   0.0000

          k = 0.4667-0.0667-0.2000 (  3266 PWs)   bands (ev):

   -66.0588 -66.0437 -32.4976 -32.4680 -32.2816 -32.2459 -32.1696 -32.1404
    14.9235  15.5318  17.6552  17.8333  18.1158  18.2191  19.8396  19.8936
    20.8813  21.0781  21.6323  22.2546

     occupation numbers 
     1.0000   1.0000   1.0000   1.0000   1.0000   1.0000   1.0000   1.0000
     1.0000   1.0000   1.0000   1.0000   1.0000   1.0000   0.0000   0.0000
     0.0000   0.0000   0.0000   0.0000

          k = 0.4667-0.0667-0.1333 (  3257 PWs)   bands (ev):

   -66.0612 -66.0441 -32.4543 -32.4204 -32.2847 -32.2452 -32.2039 -32.1706
    14.7394  15.4361  17.6480  17.9360  18.3884  18.5534  19.5494  19.5634
    20.5493  20.7911  21.6092  22.1247

     occupation numbers 
     1.0000   1.0000   1.0000   1.0000   1.0000   1.0000   1.0000   1.0000
     1.0000   1.0000   1.0000   1.0000   1.0000   1.0000   0.0000   0.0000
     0.0000   0.0000   0.0000   0.0000

          k = 0.4667-0.0667-0.0667 (  3264 PWs)   bands (ev):

   -66.0627 -66.0445 -32.4170 -32.3798 -32.2840 -32.2433 -32.2377 -32.2012
    14.5952  15.3298  17.7489  18.1197  18.6606  18.8544  19.2457  19.3394
    20.2250  20.5073  21.5989  22.0301

     occupation numbers 
     1.0000   1.0000   1.0000   1.0000   1.0000   1.0000   1.0000   1.0000
     1.0000   1.0000   1.0000   1.0000   1.0000   1.0000   0.1728   0.0000
     0.0000   0.0000   0.0000   0.0000

     the Fermi energy is    19.2308 ev
     (compare with:    19.2333 eV, computed in scf)

     Writing all to output data dir ./temp/fe.save/ :
     XML data file, pseudopotentials, collected wavefunctions

     init_run     :      1.16s CPU      1.29s WALL (       1 calls)
     electrons    :   1242.65s CPU   1295.72s WALL (       1 calls)

     Called by init_run:
     wfcinit      :      0.00s CPU      0.00s WALL (       1 calls)
     wfcinit:atom :      0.41s CPU      0.53s WALL (    3376 calls)
     wfcinit:wfcr :     42.09s CPU     44.43s WALL (    3376 calls)
     potinit      :      0.44s CPU      0.48s WALL (       1 calls)
     hinit0       :      0.41s CPU      0.42s WALL (       1 calls)

     Called by electrons:
     c_bands      :   1241.64s CPU   1294.36s WALL (       1 calls)
     v_of_rho     :      0.04s CPU      0.05s WALL (       1 calls)
     v_h          :      0.00s CPU      0.00s WALL (       1 calls)
     v_xc         :      0.04s CPU      0.05s WALL (       1 calls)
     newd         :      0.12s CPU      0.15s WALL (       1 calls)
     PAW_pot      :      0.20s CPU      0.22s WALL (       1 calls)

     Called by c_bands:
     init_us_2    :      0.60s CPU      0.86s WALL (    3376 calls)
     cegterg      :   1192.54s CPU   1241.17s WALL (    5972 calls)

     Called by sum_band:

     Called by *egterg:
     cdiaghg      :     68.97s CPU     69.93s WALL (   89963 calls)
     cegterg:over :    164.68s CPU    167.75s WALL (   86587 calls)
     cegterg:upda :     70.86s CPU     71.42s WALL (   86587 calls)
     cegterg:last :    203.20s CPU    204.54s WALL (   61851 calls)
     h_psi        :    599.35s CPU    643.23s WALL (   95935 calls)
     s_psi        :     71.72s CPU     72.52s WALL (   95935 calls)
     g_psi        :      2.72s CPU      2.77s WALL (   86587 calls)

     Called by h_psi:
     h_psi:calbec :     84.59s CPU     88.99s WALL (   95935 calls)
     vloc_psi     :    440.74s CPU    479.52s WALL (   95935 calls)
     add_vuspsi   :     71.84s CPU     72.56s WALL (   95935 calls)

     General routines
     calbec       :     84.33s CPU     88.79s WALL (   95935 calls)
     fft          :      0.16s CPU      0.17s WALL (      23 calls)
     ffts         :      0.17s CPU      0.17s WALL (       2 calls)
     fftw         :    380.66s CPU    414.56s WALL ( 2688374 calls)
     interpolate  :      0.19s CPU      0.19s WALL (       2 calls)
     davcio       :      0.56s CPU      0.70s WALL (    6752 calls)

     Parallel routines

     PAW routines
     PAW_pot      :      0.20s CPU      0.22s WALL (       1 calls)

     PWSCF        :  20m47.44s CPU  21m43.93s WALL


   This run was terminated on:   6:59: 2  12Dec2025            

=------------------------------------------------------------------------------=
   JOB DONE.
=------------------------------------------------------------------------------=
