
     Program PWSCF v.7.3.1 starts on 23Dec2024 at 21:11:48 

     This program is part of the open-source Quantum ESPRESSO suite
     for quantum simulation of materials; please cite
         "P. Giannozzi et al., J. Phys.:Condens. Matter 21 395502 (2009);
         "P. Giannozzi et al., J. Phys.:Condens. Matter 29 465901 (2017);
         "P. Giannozzi et al., J. Chem. Phys. 152 154105 (2020);
          URL http://www.quantum-espresso.org", 
     in publications or presentations arising from this work. More details at
     http://www.quantum-espresso.org/quote

     Parallel version (MPI), running on     4 processors

     MPI processes distributed on     1 nodes
     11338 MiB available memory on the printing compute node when the environment starts

     Reading input from nscf.in
Warning: card  &IONS ignored
Warning: card  / ignored
Warning: card  &CELL ignored
Warning: card    CELL_DOFREE     = 'IBRAV' ignored
Warning: card  / ignored

     Current dimensions of program PWSCF are:
     Max number of different atomic species (ntypx) = 10
     Max number of k-points (npk) =  40000
     Max angular momentum in pseudopotentials (lmaxx) =  4
     file Fe.pbesol-spn-kjpaw_psl.1.0.0.UPF: wavefunction(s)  3P 3D renormalized
     file Fe.pbesol-spn-kjpaw_psl.1.0.0.UPF: wavefunction(s)  3P 3D renormalized

     Atomic positions and unit cell read from directory:
     ./temp/fe.save/

     Found identity + (  0.5000  0.5000  0.5000) symmetry
     This is a supercell, fractional translations are disabled

     R & G space division:  proc/nbgrp/npool/nimage =       4
     Subspace diagonalization in iterative solution of the eigenvalue problem:
     a serial algorithm will be used


     Parallelization info
     --------------------
     sticks:   dense  smooth     PW     G-vecs:    dense   smooth      PW
     Min         260     129     42                 6334     2231     393
     Max         261     130     43                 6337     2232     394
     Sum        1041     517    169                25341     8925    1575

     Using Slab Decomposition



     bravais-lattice index     =            1
     lattice parameter (alat)  =       5.2188  a.u.
     unit-cell volume          =     142.1412 (a.u.)^3
     number of atoms/cell      =            2
     number of atomic types    =            2
     number of electrons       =        32.00
     number of Kohn-Sham states=           20
     kinetic-energy cutoff     =      60.0000  Ry
     charge density cutoff     =     480.0000  Ry
     Exchange-correlation= SLA  PW   PSX  PSC
                           (   1   4  10   8   0   0   0)

     celldm(1)=   5.218832  celldm(2)=   0.000000  celldm(3)=   0.000000
     celldm(4)=   0.000000  celldm(5)=   0.000000  celldm(6)=   0.000000

     crystal axes: (cart. coord. in units of alat)
               a(1) = (   1.000000   0.000000   0.000000 )  
               a(2) = (   0.000000   1.000000   0.000000 )  
               a(3) = (   0.000000   0.000000   1.000000 )  

     reciprocal axes: (cart. coord. in units 2 pi/alat)
               b(1) = (  1.000000  0.000000  0.000000 )  
               b(2) = (  0.000000  1.000000  0.000000 )  
               b(3) = (  0.000000  0.000000  1.000000 )  


     PseudoPot. # 1 for Fe read from file:
     ./../../pseudos/Fe.pbesol-spn-kjpaw_psl.1.0.0.UPF
     MD5 check sum: e30d5f36a6f0cb983ee41abee56170da
     Pseudo is Projector augmented-wave + core cor, Zval = 16.0
     Generated using &quot;atomic&quot; code by A. Dal Corso  v.6.3
     Shape of augmentation charge: PSQ
     Using radial grid of 1191 points,  6 beta functions with: 
                l(1) =   0
                l(2) =   0
                l(3) =   1
                l(4) =   1
                l(5) =   2
                l(6) =   2
     Q(r) pseudized with 0 coefficients 


     PseudoPot. # 2 for Fe read from file:
     ./../../pseudos/Fe.pbesol-spn-kjpaw_psl.1.0.0.UPF
     MD5 check sum: e30d5f36a6f0cb983ee41abee56170da
     Pseudo is Projector augmented-wave + core cor, Zval = 16.0
     Generated using &quot;atomic&quot; code by A. Dal Corso  v.6.3
     Shape of augmentation charge: PSQ
     Using radial grid of 1191 points,  6 beta functions with: 
                l(1) =   0
                l(2) =   0
                l(3) =   1
                l(4) =   1
                l(5) =   2
                l(6) =   2
     Q(r) pseudized with 0 coefficients 


     atomic species   valence    mass     pseudopotential
     Fe1              16.00    55.84500     Fe( 1.00)
     Fe2              16.00    55.84500     Fe( 1.00)

     Starting magnetic structure 
     atomic species   magnetization
     Fe1             0.300
     Fe2             0.300

     48 Sym. Ops., with inversion, found


                                    s                        frac. trans.

      isym =  1     identity                                     

 cryst.   s( 1) = (     1          0          0      )
                  (     0          1          0      )
                  (     0          0          1      )

 cart.    s( 1) = (  1.0000000  0.0000000  0.0000000 )
                  (  0.0000000  1.0000000  0.0000000 )
                  (  0.0000000  0.0000000  1.0000000 )


      isym =  2     180 deg rotation - cart. axis [0,0,1]        

 cryst.   s( 2) = (    -1          0          0      )
                  (     0         -1          0      )
                  (     0          0          1      )

 cart.    s( 2) = ( -1.0000000  0.0000000  0.0000000 )
                  (  0.0000000 -1.0000000  0.0000000 )
                  (  0.0000000  0.0000000  1.0000000 )


      isym =  3     180 deg rotation - cart. axis [0,1,0]        

 cryst.   s( 3) = (    -1          0          0      )
                  (     0          1          0      )
                  (     0          0         -1      )

 cart.    s( 3) = ( -1.0000000  0.0000000  0.0000000 )
                  (  0.0000000  1.0000000  0.0000000 )
                  (  0.0000000  0.0000000 -1.0000000 )


      isym =  4     180 deg rotation - cart. axis [1,0,0]        

 cryst.   s( 4) = (     1          0          0      )
                  (     0         -1          0      )
                  (     0          0         -1      )

 cart.    s( 4) = (  1.0000000  0.0000000  0.0000000 )
                  (  0.0000000 -1.0000000  0.0000000 )
                  (  0.0000000  0.0000000 -1.0000000 )


      isym =  5     180 deg rotation - cart. axis [1,1,0]        

 cryst.   s( 5) = (     0          1          0      )
                  (     1          0          0      )
                  (     0          0         -1      )

 cart.    s( 5) = (  0.0000000  1.0000000  0.0000000 )
                  (  1.0000000  0.0000000  0.0000000 )
                  (  0.0000000  0.0000000 -1.0000000 )


      isym =  6     180 deg rotation - cart. axis [1,-1,0]       

 cryst.   s( 6) = (     0         -1          0      )
                  (    -1          0          0      )
                  (     0          0         -1      )

 cart.    s( 6) = (  0.0000000 -1.0000000  0.0000000 )
                  ( -1.0000000  0.0000000  0.0000000 )
                  (  0.0000000  0.0000000 -1.0000000 )


      isym =  7      90 deg rotation - cart. axis [0,0,-1]       

 cryst.   s( 7) = (     0         -1          0      )
                  (     1          0          0      )
                  (     0          0          1      )

 cart.    s( 7) = (  0.0000000  1.0000000  0.0000000 )
                  ( -1.0000000  0.0000000  0.0000000 )
                  (  0.0000000  0.0000000  1.0000000 )


      isym =  8      90 deg rotation - cart. axis [0,0,1]        

 cryst.   s( 8) = (     0          1          0      )
                  (    -1          0          0      )
                  (     0          0          1      )

 cart.    s( 8) = (  0.0000000 -1.0000000  0.0000000 )
                  (  1.0000000  0.0000000  0.0000000 )
                  (  0.0000000  0.0000000  1.0000000 )


      isym =  9     180 deg rotation - cart. axis [1,0,1]        

 cryst.   s( 9) = (     0          0          1      )
                  (     0         -1          0      )
                  (     1          0          0      )

 cart.    s( 9) = (  0.0000000  0.0000000  1.0000000 )
                  (  0.0000000 -1.0000000  0.0000000 )
                  (  1.0000000  0.0000000  0.0000000 )


      isym = 10     180 deg rotation - cart. axis [-1,0,1]       

 cryst.   s(10) = (     0          0         -1      )
                  (     0         -1          0      )
                  (    -1          0          0      )

 cart.    s(10) = (  0.0000000  0.0000000 -1.0000000 )
                  (  0.0000000 -1.0000000  0.0000000 )
                  ( -1.0000000  0.0000000  0.0000000 )


      isym = 11      90 deg rotation - cart. axis [0,1,0]        

 cryst.   s(11) = (     0          0         -1      )
                  (     0          1          0      )
                  (     1          0          0      )

 cart.    s(11) = (  0.0000000  0.0000000  1.0000000 )
                  (  0.0000000  1.0000000  0.0000000 )
                  ( -1.0000000  0.0000000  0.0000000 )


      isym = 12      90 deg rotation - cart. axis [0,-1,0]       

 cryst.   s(12) = (     0          0          1      )
                  (     0          1          0      )
                  (    -1          0          0      )

 cart.    s(12) = (  0.0000000  0.0000000 -1.0000000 )
                  (  0.0000000  1.0000000  0.0000000 )
                  (  1.0000000  0.0000000  0.0000000 )


      isym = 13     180 deg rotation - cart. axis [0,1,1]        

 cryst.   s(13) = (    -1          0          0      )
                  (     0          0          1      )
                  (     0          1          0      )

 cart.    s(13) = ( -1.0000000  0.0000000  0.0000000 )
                  (  0.0000000  0.0000000  1.0000000 )
                  (  0.0000000  1.0000000  0.0000000 )


      isym = 14     180 deg rotation - cart. axis [0,1,-1]       

 cryst.   s(14) = (    -1          0          0      )
                  (     0          0         -1      )
                  (     0         -1          0      )

 cart.    s(14) = ( -1.0000000  0.0000000  0.0000000 )
                  (  0.0000000  0.0000000 -1.0000000 )
                  (  0.0000000 -1.0000000  0.0000000 )


      isym = 15      90 deg rotation - cart. axis [-1,0,0]       

 cryst.   s(15) = (     1          0          0      )
                  (     0          0         -1      )
                  (     0          1          0      )

 cart.    s(15) = (  1.0000000  0.0000000  0.0000000 )
                  (  0.0000000  0.0000000  1.0000000 )
                  (  0.0000000 -1.0000000  0.0000000 )


      isym = 16      90 deg rotation - cart. axis [1,0,0]        

 cryst.   s(16) = (     1          0          0      )
                  (     0          0          1      )
                  (     0         -1          0      )

 cart.    s(16) = (  1.0000000  0.0000000  0.0000000 )
                  (  0.0000000  0.0000000 -1.0000000 )
                  (  0.0000000  1.0000000  0.0000000 )


      isym = 17     120 deg rotation - cart. axis [-1,-1,-1]     

 cryst.   s(17) = (     0          0          1      )
                  (     1          0          0      )
                  (     0          1          0      )

 cart.    s(17) = (  0.0000000  1.0000000  0.0000000 )
                  (  0.0000000  0.0000000  1.0000000 )
                  (  1.0000000  0.0000000  0.0000000 )


      isym = 18     120 deg rotation - cart. axis [-1,1,1]       

 cryst.   s(18) = (     0          0         -1      )
                  (    -1          0          0      )
                  (     0          1          0      )

 cart.    s(18) = (  0.0000000 -1.0000000  0.0000000 )
                  (  0.0000000  0.0000000  1.0000000 )
                  ( -1.0000000  0.0000000  0.0000000 )


      isym = 19     120 deg rotation - cart. axis [1,1,-1]       

 cryst.   s(19) = (     0          0         -1      )
                  (     1          0          0      )
                  (     0         -1          0      )

 cart.    s(19) = (  0.0000000  1.0000000  0.0000000 )
                  (  0.0000000  0.0000000 -1.0000000 )
                  ( -1.0000000  0.0000000  0.0000000 )


      isym = 20     120 deg rotation - cart. axis [1,-1,1]       

 cryst.   s(20) = (     0          0          1      )
                  (    -1          0          0      )
                  (     0         -1          0      )

 cart.    s(20) = (  0.0000000 -1.0000000  0.0000000 )
                  (  0.0000000  0.0000000 -1.0000000 )
                  (  1.0000000  0.0000000  0.0000000 )


      isym = 21     120 deg rotation - cart. axis [1,1,1]        

 cryst.   s(21) = (     0          1          0      )
                  (     0          0          1      )
                  (     1          0          0      )

 cart.    s(21) = (  0.0000000  0.0000000  1.0000000 )
                  (  1.0000000  0.0000000  0.0000000 )
                  (  0.0000000  1.0000000  0.0000000 )


      isym = 22     120 deg rotation - cart. axis [-1,1,-1]      

 cryst.   s(22) = (     0         -1          0      )
                  (     0          0         -1      )
                  (     1          0          0      )

 cart.    s(22) = (  0.0000000  0.0000000  1.0000000 )
                  ( -1.0000000  0.0000000  0.0000000 )
                  (  0.0000000 -1.0000000  0.0000000 )


      isym = 23     120 deg rotation - cart. axis [1,-1,-1]      

 cryst.   s(23) = (     0         -1          0      )
                  (     0          0          1      )
                  (    -1          0          0      )

 cart.    s(23) = (  0.0000000  0.0000000 -1.0000000 )
                  ( -1.0000000  0.0000000  0.0000000 )
                  (  0.0000000  1.0000000  0.0000000 )


      isym = 24     120 deg rotation - cart. axis [-1,-1,1]      

 cryst.   s(24) = (     0          1          0      )
                  (     0          0         -1      )
                  (    -1          0          0      )

 cart.    s(24) = (  0.0000000  0.0000000 -1.0000000 )
                  (  1.0000000  0.0000000  0.0000000 )
                  (  0.0000000 -1.0000000  0.0000000 )


      isym = 25     inversion                                    

 cryst.   s(25) = (    -1          0          0      )
                  (     0         -1          0      )
                  (     0          0         -1      )

 cart.    s(25) = ( -1.0000000  0.0000000  0.0000000 )
                  (  0.0000000 -1.0000000  0.0000000 )
                  (  0.0000000  0.0000000 -1.0000000 )


      isym = 26     inv. 180 deg rotation - cart. axis [0,0,1]   

 cryst.   s(26) = (     1          0          0      )
                  (     0          1          0      )
                  (     0          0         -1      )

 cart.    s(26) = (  1.0000000  0.0000000  0.0000000 )
                  (  0.0000000  1.0000000  0.0000000 )
                  (  0.0000000  0.0000000 -1.0000000 )


      isym = 27     inv. 180 deg rotation - cart. axis [0,1,0]   

 cryst.   s(27) = (     1          0          0      )
                  (     0         -1          0      )
                  (     0          0          1      )

 cart.    s(27) = (  1.0000000  0.0000000  0.0000000 )
                  (  0.0000000 -1.0000000  0.0000000 )
                  (  0.0000000  0.0000000  1.0000000 )


      isym = 28     inv. 180 deg rotation - cart. axis [1,0,0]   

 cryst.   s(28) = (    -1          0          0      )
                  (     0          1          0      )
                  (     0          0          1      )

 cart.    s(28) = ( -1.0000000  0.0000000  0.0000000 )
                  (  0.0000000  1.0000000  0.0000000 )
                  (  0.0000000  0.0000000  1.0000000 )


      isym = 29     inv. 180 deg rotation - cart. axis [1,1,0]   

 cryst.   s(29) = (     0         -1          0      )
                  (    -1          0          0      )
                  (     0          0          1      )

 cart.    s(29) = (  0.0000000 -1.0000000  0.0000000 )
                  ( -1.0000000  0.0000000  0.0000000 )
                  (  0.0000000  0.0000000  1.0000000 )


      isym = 30     inv. 180 deg rotation - cart. axis [1,-1,0]  

 cryst.   s(30) = (     0          1          0      )
                  (     1          0          0      )
                  (     0          0          1      )

 cart.    s(30) = (  0.0000000  1.0000000  0.0000000 )
                  (  1.0000000  0.0000000  0.0000000 )
                  (  0.0000000  0.0000000  1.0000000 )


      isym = 31     inv.  90 deg rotation - cart. axis [0,0,-1]  

 cryst.   s(31) = (     0          1          0      )
                  (    -1          0          0      )
                  (     0          0         -1      )

 cart.    s(31) = (  0.0000000 -1.0000000  0.0000000 )
                  (  1.0000000  0.0000000  0.0000000 )
                  (  0.0000000  0.0000000 -1.0000000 )


      isym = 32     inv.  90 deg rotation - cart. axis [0,0,1]   

 cryst.   s(32) = (     0         -1          0      )
                  (     1          0          0      )
                  (     0          0         -1      )

 cart.    s(32) = (  0.0000000  1.0000000  0.0000000 )
                  ( -1.0000000  0.0000000  0.0000000 )
                  (  0.0000000  0.0000000 -1.0000000 )


      isym = 33     inv. 180 deg rotation - cart. axis [1,0,1]   

 cryst.   s(33) = (     0          0         -1      )
                  (     0          1          0      )
                  (    -1          0          0      )

 cart.    s(33) = (  0.0000000  0.0000000 -1.0000000 )
                  (  0.0000000  1.0000000  0.0000000 )
                  ( -1.0000000  0.0000000  0.0000000 )


      isym = 34     inv. 180 deg rotation - cart. axis [-1,0,1]  

 cryst.   s(34) = (     0          0          1      )
                  (     0          1          0      )
                  (     1          0          0      )

 cart.    s(34) = (  0.0000000  0.0000000  1.0000000 )
                  (  0.0000000  1.0000000  0.0000000 )
                  (  1.0000000  0.0000000  0.0000000 )


      isym = 35     inv.  90 deg rotation - cart. axis [0,1,0]   

 cryst.   s(35) = (     0          0          1      )
                  (     0         -1          0      )
                  (    -1          0          0      )

 cart.    s(35) = (  0.0000000  0.0000000 -1.0000000 )
                  (  0.0000000 -1.0000000  0.0000000 )
                  (  1.0000000  0.0000000  0.0000000 )


      isym = 36     inv.  90 deg rotation - cart. axis [0,-1,0]  

 cryst.   s(36) = (     0          0         -1      )
                  (     0         -1          0      )
                  (     1          0          0      )

 cart.    s(36) = (  0.0000000  0.0000000  1.0000000 )
                  (  0.0000000 -1.0000000  0.0000000 )
                  ( -1.0000000  0.0000000  0.0000000 )


      isym = 37     inv. 180 deg rotation - cart. axis [0,1,1]   

 cryst.   s(37) = (     1          0          0      )
                  (     0          0         -1      )
                  (     0         -1          0      )

 cart.    s(37) = (  1.0000000  0.0000000  0.0000000 )
                  (  0.0000000  0.0000000 -1.0000000 )
                  (  0.0000000 -1.0000000  0.0000000 )


      isym = 38     inv. 180 deg rotation - cart. axis [0,1,-1]  

 cryst.   s(38) = (     1          0          0      )
                  (     0          0          1      )
                  (     0          1          0      )

 cart.    s(38) = (  1.0000000  0.0000000  0.0000000 )
                  (  0.0000000  0.0000000  1.0000000 )
                  (  0.0000000  1.0000000  0.0000000 )


      isym = 39     inv.  90 deg rotation - cart. axis [-1,0,0]  

 cryst.   s(39) = (    -1          0          0      )
                  (     0          0          1      )
                  (     0         -1          0      )

 cart.    s(39) = ( -1.0000000  0.0000000  0.0000000 )
                  (  0.0000000  0.0000000 -1.0000000 )
                  (  0.0000000  1.0000000  0.0000000 )


      isym = 40     inv.  90 deg rotation - cart. axis [1,0,0]   

 cryst.   s(40) = (    -1          0          0      )
                  (     0          0         -1      )
                  (     0          1          0      )

 cart.    s(40) = ( -1.0000000  0.0000000  0.0000000 )
                  (  0.0000000  0.0000000  1.0000000 )
                  (  0.0000000 -1.0000000  0.0000000 )


      isym = 41     inv. 120 deg rotation - cart. axis [-1,-1,-1]

 cryst.   s(41) = (     0          0         -1      )
                  (    -1          0          0      )
                  (     0         -1          0      )

 cart.    s(41) = (  0.0000000 -1.0000000  0.0000000 )
                  (  0.0000000  0.0000000 -1.0000000 )
                  ( -1.0000000  0.0000000  0.0000000 )


      isym = 42     inv. 120 deg rotation - cart. axis [-1,1,1]  

 cryst.   s(42) = (     0          0          1      )
                  (     1          0          0      )
                  (     0         -1          0      )

 cart.    s(42) = (  0.0000000  1.0000000  0.0000000 )
                  (  0.0000000  0.0000000 -1.0000000 )
                  (  1.0000000  0.0000000  0.0000000 )


      isym = 43     inv. 120 deg rotation - cart. axis [1,1,-1]  

 cryst.   s(43) = (     0          0          1      )
                  (    -1          0          0      )
                  (     0          1          0      )

 cart.    s(43) = (  0.0000000 -1.0000000  0.0000000 )
                  (  0.0000000  0.0000000  1.0000000 )
                  (  1.0000000  0.0000000  0.0000000 )


      isym = 44     inv. 120 deg rotation - cart. axis [1,-1,1]  

 cryst.   s(44) = (     0          0         -1      )
                  (     1          0          0      )
                  (     0          1          0      )

 cart.    s(44) = (  0.0000000  1.0000000  0.0000000 )
                  (  0.0000000  0.0000000  1.0000000 )
                  ( -1.0000000  0.0000000  0.0000000 )


      isym = 45     inv. 120 deg rotation - cart. axis [1,1,1]   

 cryst.   s(45) = (     0         -1          0      )
                  (     0          0         -1      )
                  (    -1          0          0      )

 cart.    s(45) = (  0.0000000  0.0000000 -1.0000000 )
                  ( -1.0000000  0.0000000  0.0000000 )
                  (  0.0000000 -1.0000000  0.0000000 )


      isym = 46     inv. 120 deg rotation - cart. axis [-1,1,-1] 

 cryst.   s(46) = (     0          1          0      )
                  (     0          0          1      )
                  (    -1          0          0      )

 cart.    s(46) = (  0.0000000  0.0000000 -1.0000000 )
                  (  1.0000000  0.0000000  0.0000000 )
                  (  0.0000000  1.0000000  0.0000000 )


      isym = 47     inv. 120 deg rotation - cart. axis [1,-1,-1] 

 cryst.   s(47) = (     0          1          0      )
                  (     0          0         -1      )
                  (     1          0          0      )

 cart.    s(47) = (  0.0000000  0.0000000  1.0000000 )
                  (  1.0000000  0.0000000  0.0000000 )
                  (  0.0000000 -1.0000000  0.0000000 )


      isym = 48     inv. 120 deg rotation - cart. axis [-1,-1,1] 

 cryst.   s(48) = (     0         -1          0      )
                  (     0          0          1      )
                  (     1          0          0      )

 cart.    s(48) = (  0.0000000  0.0000000  1.0000000 )
                  ( -1.0000000  0.0000000  0.0000000 )
                  (  0.0000000  1.0000000  0.0000000 )


     point group O_h (m-3m) 
     there are 10 classes
     the character table:

       E     8C3   3C2   6C4   6C2'  i     8S6   3s_h  6S4   6s_d 
A_1g   1.00  1.00  1.00  1.00  1.00  1.00  1.00  1.00  1.00  1.00
A_2g   1.00  1.00  1.00 -1.00 -1.00  1.00  1.00  1.00 -1.00 -1.00
E_g    2.00 -1.00  2.00  0.00  0.00  2.00 -1.00  2.00  0.00  0.00
T_1g   3.00  0.00 -1.00  1.00 -1.00  3.00  0.00 -1.00  1.00 -1.00
T_2g   3.00  0.00 -1.00 -1.00  1.00  3.00  0.00 -1.00 -1.00  1.00
A_1u   1.00  1.00  1.00  1.00  1.00 -1.00 -1.00 -1.00 -1.00 -1.00
A_2u   1.00  1.00  1.00 -1.00 -1.00 -1.00 -1.00 -1.00  1.00  1.00
E_u    2.00 -1.00  2.00  0.00  0.00 -2.00  1.00 -2.00  0.00  0.00
T_1u   3.00  0.00 -1.00  1.00 -1.00 -3.00  0.00  1.00 -1.00  1.00
T_2u   3.00  0.00 -1.00 -1.00  1.00 -3.00  0.00  1.00  1.00 -1.00

     the symmetry operations in each class and the name of the first element:

     E        1
          identity                                               
     8C3     17   19   20   18   24   21   22   23
          120 deg rotation - cart. axis [-1,-1,-1]               
     3C2      2    4    3
          180 deg rotation - cart. axis [0,0,1]                  
     6C4      7    8   15   16   12   11
           90 deg rotation - cart. axis [0,0,-1]                 
     6C2'     5    6   14   13   10    9
          180 deg rotation - cart. axis [1,1,0]                  
     i       25
          inversion                                              
     8S6     41   43   44   42   48   45   46   47
          inv. 120 deg rotation - cart. axis [-1,-1,-1]          
     3s_h    26   28   27
          inv. 180 deg rotation - cart. axis [0,0,1]             
     6S4     31   32   39   40   36   35
          inv.  90 deg rotation - cart. axis [0,0,-1]            
     6s_d    29   30   38   37   34   33
          inv. 180 deg rotation - cart. axis [1,1,0]             

   Cartesian axes

     site n.     atom                  positions (alat units)
         1        Fe1    tau(   1) = (   0.0000000   0.0000000   0.0000000  )
         2        Fe1    tau(   2) = (   0.4999998   0.4999998   0.4999998  )

   Crystallographic axes

     site n.     atom                  positions (cryst. coord.)
         1        Fe1    tau(   1) = (  0.0000000  0.0000000  0.0000000  )
         2        Fe1    tau(   2) = (  0.4999998  0.4999998  0.4999998  )

     number of k points=   120 (tetrahedron method)
                       cart. coord. in units 2pi/alat
        k(    1) = (   0.0000000   0.0000000   0.0000000), wk =   0.0002963
        k(    2) = (   0.0000000   0.0000000   0.0666667), wk =   0.0017778
        k(    3) = (   0.0000000   0.0000000   0.1333333), wk =   0.0017778
        k(    4) = (   0.0000000   0.0000000   0.2000000), wk =   0.0017778
        k(    5) = (   0.0000000   0.0000000   0.2666667), wk =   0.0017778
        k(    6) = (   0.0000000   0.0000000   0.3333333), wk =   0.0017778
        k(    7) = (   0.0000000   0.0000000   0.4000000), wk =   0.0017778
        k(    8) = (   0.0000000   0.0000000   0.4666667), wk =   0.0017778
        k(    9) = (   0.0000000   0.0666667   0.0666667), wk =   0.0035556
        k(   10) = (   0.0000000   0.0666667   0.1333333), wk =   0.0071111
        k(   11) = (   0.0000000   0.0666667   0.2000000), wk =   0.0071111
        k(   12) = (   0.0000000   0.0666667   0.2666667), wk =   0.0071111
        k(   13) = (   0.0000000   0.0666667   0.3333333), wk =   0.0071111
        k(   14) = (   0.0000000   0.0666667   0.4000000), wk =   0.0071111
        k(   15) = (   0.0000000   0.0666667   0.4666667), wk =   0.0071111
        k(   16) = (   0.0000000   0.1333333   0.1333333), wk =   0.0035556
        k(   17) = (   0.0000000   0.1333333   0.2000000), wk =   0.0071111
        k(   18) = (   0.0000000   0.1333333   0.2666667), wk =   0.0071111
        k(   19) = (   0.0000000   0.1333333   0.3333333), wk =   0.0071111
        k(   20) = (   0.0000000   0.1333333   0.4000000), wk =   0.0071111
        k(   21) = (   0.0000000   0.1333333   0.4666667), wk =   0.0071111
        k(   22) = (   0.0000000   0.2000000   0.2000000), wk =   0.0035556
        k(   23) = (   0.0000000   0.2000000   0.2666667), wk =   0.0071111
        k(   24) = (   0.0000000   0.2000000   0.3333333), wk =   0.0071111
        k(   25) = (   0.0000000   0.2000000   0.4000000), wk =   0.0071111
        k(   26) = (   0.0000000   0.2000000   0.4666667), wk =   0.0071111
        k(   27) = (   0.0000000   0.2666667   0.2666667), wk =   0.0035556
        k(   28) = (   0.0000000   0.2666667   0.3333333), wk =   0.0071111
        k(   29) = (   0.0000000   0.2666667   0.4000000), wk =   0.0071111
        k(   30) = (   0.0000000   0.2666667   0.4666667), wk =   0.0071111
        k(   31) = (   0.0000000   0.3333333   0.3333333), wk =   0.0035556
        k(   32) = (   0.0000000   0.3333333   0.4000000), wk =   0.0071111
        k(   33) = (   0.0000000   0.3333333   0.4666667), wk =   0.0071111
        k(   34) = (   0.0000000   0.4000000   0.4000000), wk =   0.0035556
        k(   35) = (   0.0000000   0.4000000   0.4666667), wk =   0.0071111
        k(   36) = (   0.0000000   0.4666667   0.4666667), wk =   0.0035556
        k(   37) = (   0.0666667   0.0666667   0.0666667), wk =   0.0023704
        k(   38) = (   0.0666667   0.0666667   0.1333333), wk =   0.0071111
        k(   39) = (   0.0666667   0.0666667   0.2000000), wk =   0.0071111
        k(   40) = (   0.0666667   0.0666667   0.2666667), wk =   0.0071111
        k(   41) = (   0.0666667   0.0666667   0.3333333), wk =   0.0071111
        k(   42) = (   0.0666667   0.0666667   0.4000000), wk =   0.0071111
        k(   43) = (   0.0666667   0.0666667   0.4666667), wk =   0.0071111
        k(   44) = (   0.0666667   0.1333333   0.1333333), wk =   0.0071111
        k(   45) = (   0.0666667   0.1333333   0.2000000), wk =   0.0142222
        k(   46) = (   0.0666667   0.1333333   0.2666667), wk =   0.0142222
        k(   47) = (   0.0666667   0.1333333   0.3333333), wk =   0.0142222
        k(   48) = (   0.0666667   0.1333333   0.4000000), wk =   0.0142222
        k(   49) = (   0.0666667   0.1333333   0.4666667), wk =   0.0142222
        k(   50) = (   0.0666667   0.2000000   0.2000000), wk =   0.0071111
        k(   51) = (   0.0666667   0.2000000   0.2666667), wk =   0.0142222
        k(   52) = (   0.0666667   0.2000000   0.3333333), wk =   0.0142222
        k(   53) = (   0.0666667   0.2000000   0.4000000), wk =   0.0142222
        k(   54) = (   0.0666667   0.2000000   0.4666667), wk =   0.0142222
        k(   55) = (   0.0666667   0.2666667   0.2666667), wk =   0.0071111
        k(   56) = (   0.0666667   0.2666667   0.3333333), wk =   0.0142222
        k(   57) = (   0.0666667   0.2666667   0.4000000), wk =   0.0142222
        k(   58) = (   0.0666667   0.2666667   0.4666667), wk =   0.0142222
        k(   59) = (   0.0666667   0.3333333   0.3333333), wk =   0.0071111
        k(   60) = (   0.0666667   0.3333333   0.4000000), wk =   0.0142222
        k(   61) = (   0.0666667   0.3333333   0.4666667), wk =   0.0142222
        k(   62) = (   0.0666667   0.4000000   0.4000000), wk =   0.0071111
        k(   63) = (   0.0666667   0.4000000   0.4666667), wk =   0.0142222
        k(   64) = (   0.0666667   0.4666667   0.4666667), wk =   0.0071111
        k(   65) = (   0.1333333   0.1333333   0.1333333), wk =   0.0023704
        k(   66) = (   0.1333333   0.1333333   0.2000000), wk =   0.0071111
        k(   67) = (   0.1333333   0.1333333   0.2666667), wk =   0.0071111
        k(   68) = (   0.1333333   0.1333333   0.3333333), wk =   0.0071111
        k(   69) = (   0.1333333   0.1333333   0.4000000), wk =   0.0071111
        k(   70) = (   0.1333333   0.1333333   0.4666667), wk =   0.0071111
        k(   71) = (   0.1333333   0.2000000   0.2000000), wk =   0.0071111
        k(   72) = (   0.1333333   0.2000000   0.2666667), wk =   0.0142222
        k(   73) = (   0.1333333   0.2000000   0.3333333), wk =   0.0142222
        k(   74) = (   0.1333333   0.2000000   0.4000000), wk =   0.0142222
        k(   75) = (   0.1333333   0.2000000   0.4666667), wk =   0.0142222
        k(   76) = (   0.1333333   0.2666667   0.2666667), wk =   0.0071111
        k(   77) = (   0.1333333   0.2666667   0.3333333), wk =   0.0142222
        k(   78) = (   0.1333333   0.2666667   0.4000000), wk =   0.0142222
        k(   79) = (   0.1333333   0.2666667   0.4666667), wk =   0.0142222
        k(   80) = (   0.1333333   0.3333333   0.3333333), wk =   0.0071111
        k(   81) = (   0.1333333   0.3333333   0.4000000), wk =   0.0142222
        k(   82) = (   0.1333333   0.3333333   0.4666667), wk =   0.0142222
        k(   83) = (   0.1333333   0.4000000   0.4000000), wk =   0.0071111
        k(   84) = (   0.1333333   0.4000000   0.4666667), wk =   0.0142222
        k(   85) = (   0.1333333   0.4666667   0.4666667), wk =   0.0071111
        k(   86) = (   0.2000000   0.2000000   0.2000000), wk =   0.0023704
        k(   87) = (   0.2000000   0.2000000   0.2666667), wk =   0.0071111
        k(   88) = (   0.2000000   0.2000000   0.3333333), wk =   0.0071111
        k(   89) = (   0.2000000   0.2000000   0.4000000), wk =   0.0071111
        k(   90) = (   0.2000000   0.2000000   0.4666667), wk =   0.0071111
        k(   91) = (   0.2000000   0.2666667   0.2666667), wk =   0.0071111
        k(   92) = (   0.2000000   0.2666667   0.3333333), wk =   0.0142222
        k(   93) = (   0.2000000   0.2666667   0.4000000), wk =   0.0142222
        k(   94) = (   0.2000000   0.2666667   0.4666667), wk =   0.0142222
        k(   95) = (   0.2000000   0.3333333   0.3333333), wk =   0.0071111
        k(   96) = (   0.2000000   0.3333333   0.4000000), wk =   0.0142222
        k(   97) = (   0.2000000   0.3333333   0.4666667), wk =   0.0142222
        k(   98) = (   0.2000000   0.4000000   0.4000000), wk =   0.0071111
        k(   99) = (   0.2000000   0.4000000   0.4666667), wk =   0.0142222
        k(  100) = (   0.2000000   0.4666667   0.4666667), wk =   0.0071111
        k(  101) = (   0.2666667   0.2666667   0.2666667), wk =   0.0023704
        k(  102) = (   0.2666667   0.2666667   0.3333333), wk =   0.0071111
        k(  103) = (   0.2666667   0.2666667   0.4000000), wk =   0.0071111
        k(  104) = (   0.2666667   0.2666667   0.4666667), wk =   0.0071111
        k(  105) = (   0.2666667   0.3333333   0.3333333), wk =   0.0071111
        k(  106) = (   0.2666667   0.3333333   0.4000000), wk =   0.0142222
        k(  107) = (   0.2666667   0.3333333   0.4666667), wk =   0.0142222
        k(  108) = (   0.2666667   0.4000000   0.4000000), wk =   0.0071111
        k(  109) = (   0.2666667   0.4000000   0.4666667), wk =   0.0142222
        k(  110) = (   0.2666667   0.4666667   0.4666667), wk =   0.0071111
        k(  111) = (   0.3333333   0.3333333   0.3333333), wk =   0.0023704
        k(  112) = (   0.3333333   0.3333333   0.4000000), wk =   0.0071111
        k(  113) = (   0.3333333   0.3333333   0.4666667), wk =   0.0071111
        k(  114) = (   0.3333333   0.4000000   0.4000000), wk =   0.0071111
        k(  115) = (   0.3333333   0.4000000   0.4666667), wk =   0.0142222
        k(  116) = (   0.3333333   0.4666667   0.4666667), wk =   0.0071111
        k(  117) = (   0.4000000   0.4000000   0.4000000), wk =   0.0023704
        k(  118) = (   0.4000000   0.4000000   0.4666667), wk =   0.0071111
        k(  119) = (   0.4000000   0.4666667   0.4666667), wk =   0.0071111
        k(  120) = (   0.4666667   0.4666667   0.4666667), wk =   0.0023704

                       cryst. coord.
        k(    1) = (   0.0000000   0.0000000   0.0000000), wk =   0.0002963
        k(    2) = (   0.0000000   0.0000000   0.0666667), wk =   0.0017778
        k(    3) = (   0.0000000   0.0000000   0.1333333), wk =   0.0017778
        k(    4) = (   0.0000000   0.0000000   0.2000000), wk =   0.0017778
        k(    5) = (   0.0000000   0.0000000   0.2666667), wk =   0.0017778
        k(    6) = (   0.0000000   0.0000000   0.3333333), wk =   0.0017778
        k(    7) = (   0.0000000   0.0000000   0.4000000), wk =   0.0017778
        k(    8) = (   0.0000000   0.0000000   0.4666667), wk =   0.0017778
        k(    9) = (   0.0000000   0.0666667   0.0666667), wk =   0.0035556
        k(   10) = (   0.0000000   0.0666667   0.1333333), wk =   0.0071111
        k(   11) = (   0.0000000   0.0666667   0.2000000), wk =   0.0071111
        k(   12) = (   0.0000000   0.0666667   0.2666667), wk =   0.0071111
        k(   13) = (   0.0000000   0.0666667   0.3333333), wk =   0.0071111
        k(   14) = (   0.0000000   0.0666667   0.4000000), wk =   0.0071111
        k(   15) = (   0.0000000   0.0666667   0.4666667), wk =   0.0071111
        k(   16) = (   0.0000000   0.1333333   0.1333333), wk =   0.0035556
        k(   17) = (   0.0000000   0.1333333   0.2000000), wk =   0.0071111
        k(   18) = (   0.0000000   0.1333333   0.2666667), wk =   0.0071111
        k(   19) = (   0.0000000   0.1333333   0.3333333), wk =   0.0071111
        k(   20) = (   0.0000000   0.1333333   0.4000000), wk =   0.0071111
        k(   21) = (   0.0000000   0.1333333   0.4666667), wk =   0.0071111
        k(   22) = (   0.0000000   0.2000000   0.2000000), wk =   0.0035556
        k(   23) = (   0.0000000   0.2000000   0.2666667), wk =   0.0071111
        k(   24) = (   0.0000000   0.2000000   0.3333333), wk =   0.0071111
        k(   25) = (   0.0000000   0.2000000   0.4000000), wk =   0.0071111
        k(   26) = (   0.0000000   0.2000000   0.4666667), wk =   0.0071111
        k(   27) = (   0.0000000   0.2666667   0.2666667), wk =   0.0035556
        k(   28) = (   0.0000000   0.2666667   0.3333333), wk =   0.0071111
        k(   29) = (   0.0000000   0.2666667   0.4000000), wk =   0.0071111
        k(   30) = (   0.0000000   0.2666667   0.4666667), wk =   0.0071111
        k(   31) = (   0.0000000   0.3333333   0.3333333), wk =   0.0035556
        k(   32) = (   0.0000000   0.3333333   0.4000000), wk =   0.0071111
        k(   33) = (   0.0000000   0.3333333   0.4666667), wk =   0.0071111
        k(   34) = (   0.0000000   0.4000000   0.4000000), wk =   0.0035556
        k(   35) = (   0.0000000   0.4000000   0.4666667), wk =   0.0071111
        k(   36) = (   0.0000000   0.4666667   0.4666667), wk =   0.0035556
        k(   37) = (   0.0666667   0.0666667   0.0666667), wk =   0.0023704
        k(   38) = (   0.0666667   0.0666667   0.1333333), wk =   0.0071111
        k(   39) = (   0.0666667   0.0666667   0.2000000), wk =   0.0071111
        k(   40) = (   0.0666667   0.0666667   0.2666667), wk =   0.0071111
        k(   41) = (   0.0666667   0.0666667   0.3333333), wk =   0.0071111
        k(   42) = (   0.0666667   0.0666667   0.4000000), wk =   0.0071111
        k(   43) = (   0.0666667   0.0666667   0.4666667), wk =   0.0071111
        k(   44) = (   0.0666667   0.1333333   0.1333333), wk =   0.0071111
        k(   45) = (   0.0666667   0.1333333   0.2000000), wk =   0.0142222
        k(   46) = (   0.0666667   0.1333333   0.2666667), wk =   0.0142222
        k(   47) = (   0.0666667   0.1333333   0.3333333), wk =   0.0142222
        k(   48) = (   0.0666667   0.1333333   0.4000000), wk =   0.0142222
        k(   49) = (   0.0666667   0.1333333   0.4666667), wk =   0.0142222
        k(   50) = (   0.0666667   0.2000000   0.2000000), wk =   0.0071111
        k(   51) = (   0.0666667   0.2000000   0.2666667), wk =   0.0142222
        k(   52) = (   0.0666667   0.2000000   0.3333333), wk =   0.0142222
        k(   53) = (   0.0666667   0.2000000   0.4000000), wk =   0.0142222
        k(   54) = (   0.0666667   0.2000000   0.4666667), wk =   0.0142222
        k(   55) = (   0.0666667   0.2666667   0.2666667), wk =   0.0071111
        k(   56) = (   0.0666667   0.2666667   0.3333333), wk =   0.0142222
        k(   57) = (   0.0666667   0.2666667   0.4000000), wk =   0.0142222
        k(   58) = (   0.0666667   0.2666667   0.4666667), wk =   0.0142222
        k(   59) = (   0.0666667   0.3333333   0.3333333), wk =   0.0071111
        k(   60) = (   0.0666667   0.3333333   0.4000000), wk =   0.0142222
        k(   61) = (   0.0666667   0.3333333   0.4666667), wk =   0.0142222
        k(   62) = (   0.0666667   0.4000000   0.4000000), wk =   0.0071111
        k(   63) = (   0.0666667   0.4000000   0.4666667), wk =   0.0142222
        k(   64) = (   0.0666667   0.4666667   0.4666667), wk =   0.0071111
        k(   65) = (   0.1333333   0.1333333   0.1333333), wk =   0.0023704
        k(   66) = (   0.1333333   0.1333333   0.2000000), wk =   0.0071111
        k(   67) = (   0.1333333   0.1333333   0.2666667), wk =   0.0071111
        k(   68) = (   0.1333333   0.1333333   0.3333333), wk =   0.0071111
        k(   69) = (   0.1333333   0.1333333   0.4000000), wk =   0.0071111
        k(   70) = (   0.1333333   0.1333333   0.4666667), wk =   0.0071111
        k(   71) = (   0.1333333   0.2000000   0.2000000), wk =   0.0071111
        k(   72) = (   0.1333333   0.2000000   0.2666667), wk =   0.0142222
        k(   73) = (   0.1333333   0.2000000   0.3333333), wk =   0.0142222
        k(   74) = (   0.1333333   0.2000000   0.4000000), wk =   0.0142222
        k(   75) = (   0.1333333   0.2000000   0.4666667), wk =   0.0142222
        k(   76) = (   0.1333333   0.2666667   0.2666667), wk =   0.0071111
        k(   77) = (   0.1333333   0.2666667   0.3333333), wk =   0.0142222
        k(   78) = (   0.1333333   0.2666667   0.4000000), wk =   0.0142222
        k(   79) = (   0.1333333   0.2666667   0.4666667), wk =   0.0142222
        k(   80) = (   0.1333333   0.3333333   0.3333333), wk =   0.0071111
        k(   81) = (   0.1333333   0.3333333   0.4000000), wk =   0.0142222
        k(   82) = (   0.1333333   0.3333333   0.4666667), wk =   0.0142222
        k(   83) = (   0.1333333   0.4000000   0.4000000), wk =   0.0071111
        k(   84) = (   0.1333333   0.4000000   0.4666667), wk =   0.0142222
        k(   85) = (   0.1333333   0.4666667   0.4666667), wk =   0.0071111
        k(   86) = (   0.2000000   0.2000000   0.2000000), wk =   0.0023704
        k(   87) = (   0.2000000   0.2000000   0.2666667), wk =   0.0071111
        k(   88) = (   0.2000000   0.2000000   0.3333333), wk =   0.0071111
        k(   89) = (   0.2000000   0.2000000   0.4000000), wk =   0.0071111
        k(   90) = (   0.2000000   0.2000000   0.4666667), wk =   0.0071111
        k(   91) = (   0.2000000   0.2666667   0.2666667), wk =   0.0071111
        k(   92) = (   0.2000000   0.2666667   0.3333333), wk =   0.0142222
        k(   93) = (   0.2000000   0.2666667   0.4000000), wk =   0.0142222
        k(   94) = (   0.2000000   0.2666667   0.4666667), wk =   0.0142222
        k(   95) = (   0.2000000   0.3333333   0.3333333), wk =   0.0071111
        k(   96) = (   0.2000000   0.3333333   0.4000000), wk =   0.0142222
        k(   97) = (   0.2000000   0.3333333   0.4666667), wk =   0.0142222
        k(   98) = (   0.2000000   0.4000000   0.4000000), wk =   0.0071111
        k(   99) = (   0.2000000   0.4000000   0.4666667), wk =   0.0142222
        k(  100) = (   0.2000000   0.4666667   0.4666667), wk =   0.0071111
        k(  101) = (   0.2666667   0.2666667   0.2666667), wk =   0.0023704
        k(  102) = (   0.2666667   0.2666667   0.3333333), wk =   0.0071111
        k(  103) = (   0.2666667   0.2666667   0.4000000), wk =   0.0071111
        k(  104) = (   0.2666667   0.2666667   0.4666667), wk =   0.0071111
        k(  105) = (   0.2666667   0.3333333   0.3333333), wk =   0.0071111
        k(  106) = (   0.2666667   0.3333333   0.4000000), wk =   0.0142222
        k(  107) = (   0.2666667   0.3333333   0.4666667), wk =   0.0142222
        k(  108) = (   0.2666667   0.4000000   0.4000000), wk =   0.0071111
        k(  109) = (   0.2666667   0.4000000   0.4666667), wk =   0.0142222
        k(  110) = (   0.2666667   0.4666667   0.4666667), wk =   0.0071111
        k(  111) = (   0.3333333   0.3333333   0.3333333), wk =   0.0023704
        k(  112) = (   0.3333333   0.3333333   0.4000000), wk =   0.0071111
        k(  113) = (   0.3333333   0.3333333   0.4666667), wk =   0.0071111
        k(  114) = (   0.3333333   0.4000000   0.4000000), wk =   0.0071111
        k(  115) = (   0.3333333   0.4000000   0.4666667), wk =   0.0142222
        k(  116) = (   0.3333333   0.4666667   0.4666667), wk =   0.0071111
        k(  117) = (   0.4000000   0.4000000   0.4000000), wk =   0.0023704
        k(  118) = (   0.4000000   0.4000000   0.4666667), wk =   0.0071111
        k(  119) = (   0.4000000   0.4666667   0.4666667), wk =   0.0071111
        k(  120) = (   0.4666667   0.4666667   0.4666667), wk =   0.0023704

     Dense  grid:    25341 G-vectors     FFT dimensions: (  40,  40,  40)

     Smooth grid:     8925 G-vectors     FFT dimensions: (  25,  25,  25)

     Dynamical RAM for                 wfc:       0.09 MB

     Dynamical RAM for     wfc (w. buffer):       0.09 MB

     Dynamical RAM for           str. fact:       0.19 MB

     Dynamical RAM for           local pot:       0.00 MB

     Dynamical RAM for          nlocal pot:       0.15 MB

     Dynamical RAM for                qrad:       3.52 MB

     Dynamical RAM for          rho,v,vnew:       1.31 MB

     Dynamical RAM for           G-vectors:       0.38 MB

     Dynamical RAM for          h,s,v(r/c):       0.07 MB

     Dynamical RAM for          <psi|beta>:       0.01 MB

     Dynamical RAM for                 psi:       0.17 MB

     Dynamical RAM for                hpsi:       0.17 MB

     Dynamical RAM for                spsi:       0.17 MB

     Dynamical RAM for      wfcinit/wfcrot:       0.18 MB

     Dynamical RAM for           addusdens:      18.27 MB

     Estimated static dynamical RAM per process >       6.66 MB

     Estimated max dynamical RAM per process >      24.93 MB

     Estimated total dynamical RAM >      99.74 MB

     Check: negative core charge=   -0.000003
     Generating pointlists ...
     new r_m :   0.3572 (alat units)  1.8644 (a.u.) for type    1
     new r_m :   0.4125 (alat units)  2.1528 (a.u.) for type    2

     The potential is recalculated from file :
     ./temp/fe.save/charge-density


     negative rho (up, down):  0.000E+00 1.337E-04
     Starting wfcs are   20 randomized atomic wfcs
     Checking if some PAW data can be deallocated... 
       PAW data deallocated on    4 nodes for type:  2

     Band Structure Calculation
     Davidson diagonalization with overlap

     Computing kpt #:     1  of   240
     total cpu time spent up to now is        1.2 secs

     Computing kpt #:     2  of   240
     total cpu time spent up to now is        1.3 secs

     Computing kpt #:     3  of   240
     total cpu time spent up to now is        1.4 secs

     Computing kpt #:     4  of   240
     total cpu time spent up to now is        1.5 secs

     Computing kpt #:     5  of   240
     total cpu time spent up to now is        1.6 secs

     Computing kpt #:     6  of   240
     total cpu time spent up to now is        1.6 secs

     Computing kpt #:     7  of   240
     total cpu time spent up to now is        1.7 secs

     Computing kpt #:     8  of   240
     total cpu time spent up to now is        1.8 secs

     Computing kpt #:     9  of   240
     total cpu time spent up to now is        1.9 secs

     Computing kpt #:    10  of   240
     total cpu time spent up to now is        2.0 secs

     Computing kpt #:    11  of   240
     total cpu time spent up to now is        2.1 secs

     Computing kpt #:    12  of   240
     total cpu time spent up to now is        2.2 secs

     Computing kpt #:    13  of   240
     total cpu time spent up to now is        2.3 secs

     Computing kpt #:    14  of   240
     total cpu time spent up to now is        2.3 secs

     Computing kpt #:    15  of   240
     total cpu time spent up to now is        2.4 secs

     Computing kpt #:    16  of   240
     total cpu time spent up to now is        2.5 secs

     Computing kpt #:    17  of   240
     total cpu time spent up to now is        2.6 secs

     Computing kpt #:    18  of   240
     total cpu time spent up to now is        2.7 secs

     Computing kpt #:    19  of   240
     total cpu time spent up to now is        2.7 secs

     Computing kpt #:    20  of   240
     total cpu time spent up to now is        2.8 secs

     Computing kpt #:    21  of   240
     total cpu time spent up to now is        2.9 secs

     Computing kpt #:    22  of   240
     total cpu time spent up to now is        3.0 secs

     Computing kpt #:    23  of   240
     total cpu time spent up to now is        3.1 secs

     Computing kpt #:    24  of   240
     total cpu time spent up to now is        3.2 secs

     Computing kpt #:    25  of   240
     total cpu time spent up to now is        3.2 secs

     Computing kpt #:    26  of   240
     total cpu time spent up to now is        3.3 secs

     Computing kpt #:    27  of   240
     total cpu time spent up to now is        3.4 secs

     Computing kpt #:    28  of   240
     total cpu time spent up to now is        3.5 secs

     Computing kpt #:    29  of   240
     total cpu time spent up to now is        3.6 secs

     Computing kpt #:    30  of   240
     total cpu time spent up to now is        3.7 secs

     Computing kpt #:    31  of   240
     total cpu time spent up to now is        3.8 secs

     Computing kpt #:    32  of   240
     total cpu time spent up to now is        3.9 secs

     Computing kpt #:    33  of   240
     total cpu time spent up to now is        3.9 secs

     Computing kpt #:    34  of   240
     total cpu time spent up to now is        4.0 secs

     Computing kpt #:    35  of   240
     total cpu time spent up to now is        4.1 secs

     Computing kpt #:    36  of   240
     total cpu time spent up to now is        4.2 secs

     Computing kpt #:    37  of   240
     total cpu time spent up to now is        4.3 secs

     Computing kpt #:    38  of   240
     total cpu time spent up to now is        4.4 secs

     Computing kpt #:    39  of   240
     total cpu time spent up to now is        4.5 secs

     Computing kpt #:    40  of   240
     total cpu time spent up to now is        4.6 secs

     Computing kpt #:    41  of   240
     total cpu time spent up to now is        4.7 secs

     Computing kpt #:    42  of   240
     total cpu time spent up to now is        4.7 secs

     Computing kpt #:    43  of   240
     total cpu time spent up to now is        4.8 secs

     Computing kpt #:    44  of   240
     total cpu time spent up to now is        4.9 secs

     Computing kpt #:    45  of   240
     total cpu time spent up to now is        5.0 secs

     Computing kpt #:    46  of   240
     total cpu time spent up to now is        5.1 secs

     Computing kpt #:    47  of   240
     total cpu time spent up to now is        5.2 secs

     Computing kpt #:    48  of   240
     total cpu time spent up to now is        5.2 secs

     Computing kpt #:    49  of   240
     total cpu time spent up to now is        5.3 secs

     Computing kpt #:    50  of   240
     total cpu time spent up to now is        5.4 secs

     Computing kpt #:    51  of   240
     total cpu time spent up to now is        5.5 secs

     Computing kpt #:    52  of   240
     total cpu time spent up to now is        5.6 secs

     Computing kpt #:    53  of   240
     total cpu time spent up to now is        5.7 secs

     Computing kpt #:    54  of   240
     total cpu time spent up to now is        5.7 secs

     Computing kpt #:    55  of   240
     total cpu time spent up to now is        5.8 secs

     Computing kpt #:    56  of   240
     total cpu time spent up to now is        5.9 secs

     Computing kpt #:    57  of   240
     total cpu time spent up to now is        6.0 secs

     Computing kpt #:    58  of   240
     total cpu time spent up to now is        6.1 secs

     Computing kpt #:    59  of   240
     total cpu time spent up to now is        6.2 secs

     Computing kpt #:    60  of   240
     total cpu time spent up to now is        6.3 secs

     Computing kpt #:    61  of   240
     total cpu time spent up to now is        6.4 secs

     Computing kpt #:    62  of   240
     total cpu time spent up to now is        6.5 secs

     Computing kpt #:    63  of   240
     total cpu time spent up to now is        6.6 secs

     Computing kpt #:    64  of   240
     total cpu time spent up to now is        6.7 secs

     Computing kpt #:    65  of   240
     total cpu time spent up to now is        6.8 secs

     Computing kpt #:    66  of   240
     total cpu time spent up to now is        6.9 secs

     Computing kpt #:    67  of   240
     total cpu time spent up to now is        6.9 secs

     Computing kpt #:    68  of   240
     total cpu time spent up to now is        7.0 secs

     Computing kpt #:    69  of   240
     total cpu time spent up to now is        7.1 secs

     Computing kpt #:    70  of   240
     total cpu time spent up to now is        7.2 secs

     Computing kpt #:    71  of   240
     total cpu time spent up to now is        7.3 secs

     Computing kpt #:    72  of   240
     total cpu time spent up to now is        7.4 secs

     Computing kpt #:    73  of   240
     total cpu time spent up to now is        7.5 secs

     Computing kpt #:    74  of   240
     total cpu time spent up to now is        7.5 secs

     Computing kpt #:    75  of   240
     total cpu time spent up to now is        7.6 secs

     Computing kpt #:    76  of   240
     total cpu time spent up to now is        7.7 secs

     Computing kpt #:    77  of   240
     total cpu time spent up to now is        7.8 secs

     Computing kpt #:    78  of   240
     total cpu time spent up to now is        7.9 secs

     Computing kpt #:    79  of   240
     total cpu time spent up to now is        8.0 secs

     Computing kpt #:    80  of   240
     total cpu time spent up to now is        8.1 secs

     Computing kpt #:    81  of   240
     total cpu time spent up to now is        8.2 secs

     Computing kpt #:    82  of   240
     total cpu time spent up to now is        8.3 secs

     Computing kpt #:    83  of   240
     total cpu time spent up to now is        8.4 secs

     Computing kpt #:    84  of   240
     total cpu time spent up to now is        8.5 secs

     Computing kpt #:    85  of   240
     total cpu time spent up to now is        8.6 secs

     Computing kpt #:    86  of   240
     total cpu time spent up to now is        8.7 secs

     Computing kpt #:    87  of   240
     total cpu time spent up to now is        8.8 secs

     Computing kpt #:    88  of   240
     total cpu time spent up to now is        8.9 secs

     Computing kpt #:    89  of   240
     total cpu time spent up to now is        9.0 secs

     Computing kpt #:    90  of   240
     total cpu time spent up to now is        9.0 secs

     Computing kpt #:    91  of   240
     total cpu time spent up to now is        9.1 secs

     Computing kpt #:    92  of   240
     total cpu time spent up to now is        9.2 secs

     Computing kpt #:    93  of   240
     total cpu time spent up to now is        9.3 secs

     Computing kpt #:    94  of   240
     total cpu time spent up to now is        9.4 secs

     Computing kpt #:    95  of   240
     total cpu time spent up to now is        9.5 secs

     Computing kpt #:    96  of   240
     total cpu time spent up to now is        9.6 secs

     Computing kpt #:    97  of   240
     total cpu time spent up to now is        9.7 secs

     Computing kpt #:    98  of   240
     total cpu time spent up to now is        9.8 secs

     Computing kpt #:    99  of   240
     total cpu time spent up to now is        9.9 secs

     Computing kpt #:   100  of   240
     total cpu time spent up to now is       10.0 secs

     Computing kpt #:   101  of   240
     total cpu time spent up to now is       10.1 secs

     Computing kpt #:   102  of   240
     total cpu time spent up to now is       10.2 secs

     Computing kpt #:   103  of   240
     total cpu time spent up to now is       10.3 secs

     Computing kpt #:   104  of   240
     total cpu time spent up to now is       10.4 secs

     Computing kpt #:   105  of   240
     total cpu time spent up to now is       10.5 secs

     Computing kpt #:   106  of   240
     total cpu time spent up to now is       10.6 secs

     Computing kpt #:   107  of   240
     total cpu time spent up to now is       10.7 secs

     Computing kpt #:   108  of   240
     total cpu time spent up to now is       10.8 secs

     Computing kpt #:   109  of   240
     total cpu time spent up to now is       10.9 secs

     Computing kpt #:   110  of   240
     total cpu time spent up to now is       11.0 secs

     Computing kpt #:   111  of   240
     total cpu time spent up to now is       11.1 secs

     Computing kpt #:   112  of   240
     total cpu time spent up to now is       11.2 secs

     Computing kpt #:   113  of   240
     total cpu time spent up to now is       11.3 secs

     Computing kpt #:   114  of   240
     total cpu time spent up to now is       11.4 secs

     Computing kpt #:   115  of   240
     total cpu time spent up to now is       11.5 secs

     Computing kpt #:   116  of   240
     total cpu time spent up to now is       11.6 secs

     Computing kpt #:   117  of   240
     total cpu time spent up to now is       11.7 secs

     Computing kpt #:   118  of   240
     total cpu time spent up to now is       11.8 secs

     Computing kpt #:   119  of   240
     total cpu time spent up to now is       11.9 secs

     Computing kpt #:   120  of   240
     total cpu time spent up to now is       12.0 secs

     Computing kpt #:   121  of   240
     total cpu time spent up to now is       12.1 secs

     Computing kpt #:   122  of   240
     total cpu time spent up to now is       12.2 secs

     Computing kpt #:   123  of   240
     total cpu time spent up to now is       12.3 secs

     Computing kpt #:   124  of   240
     total cpu time spent up to now is       12.4 secs

     Computing kpt #:   125  of   240
     total cpu time spent up to now is       12.5 secs

     Computing kpt #:   126  of   240
     total cpu time spent up to now is       12.5 secs

     Computing kpt #:   127  of   240
     total cpu time spent up to now is       12.6 secs

     Computing kpt #:   128  of   240
     total cpu time spent up to now is       12.7 secs

     Computing kpt #:   129  of   240
     total cpu time spent up to now is       12.8 secs

     Computing kpt #:   130  of   240
     total cpu time spent up to now is       12.9 secs

     Computing kpt #:   131  of   240
     total cpu time spent up to now is       13.0 secs

     Computing kpt #:   132  of   240
     total cpu time spent up to now is       13.1 secs

     Computing kpt #:   133  of   240
     total cpu time spent up to now is       13.2 secs

     Computing kpt #:   134  of   240
     total cpu time spent up to now is       13.2 secs

     Computing kpt #:   135  of   240
     total cpu time spent up to now is       13.3 secs

     Computing kpt #:   136  of   240
     total cpu time spent up to now is       13.4 secs

     Computing kpt #:   137  of   240
     total cpu time spent up to now is       13.5 secs

     Computing kpt #:   138  of   240
     total cpu time spent up to now is       13.6 secs

     Computing kpt #:   139  of   240
     total cpu time spent up to now is       13.7 secs

     Computing kpt #:   140  of   240
     total cpu time spent up to now is       13.8 secs

     Computing kpt #:   141  of   240
     total cpu time spent up to now is       13.9 secs

     Computing kpt #:   142  of   240
     total cpu time spent up to now is       14.0 secs

     Computing kpt #:   143  of   240
     total cpu time spent up to now is       14.1 secs

     Computing kpt #:   144  of   240
     total cpu time spent up to now is       14.1 secs

     Computing kpt #:   145  of   240
     total cpu time spent up to now is       14.2 secs

     Computing kpt #:   146  of   240
     total cpu time spent up to now is       14.3 secs

     Computing kpt #:   147  of   240
     total cpu time spent up to now is       14.4 secs

     Computing kpt #:   148  of   240
     total cpu time spent up to now is       14.5 secs

     Computing kpt #:   149  of   240
     total cpu time spent up to now is       14.6 secs

     Computing kpt #:   150  of   240
     total cpu time spent up to now is       14.7 secs

     Computing kpt #:   151  of   240
     total cpu time spent up to now is       14.8 secs

     Computing kpt #:   152  of   240
     total cpu time spent up to now is       15.0 secs

     Computing kpt #:   153  of   240
     total cpu time spent up to now is       15.1 secs

     Computing kpt #:   154  of   240
     total cpu time spent up to now is       15.2 secs

     Computing kpt #:   155  of   240
     total cpu time spent up to now is       15.3 secs

     Computing kpt #:   156  of   240
     total cpu time spent up to now is       15.4 secs

     Computing kpt #:   157  of   240
     total cpu time spent up to now is       15.5 secs

     Computing kpt #:   158  of   240
     total cpu time spent up to now is       15.6 secs

     Computing kpt #:   159  of   240
     total cpu time spent up to now is       15.7 secs

     Computing kpt #:   160  of   240
     total cpu time spent up to now is       15.8 secs

     Computing kpt #:   161  of   240
     total cpu time spent up to now is       15.9 secs

     Computing kpt #:   162  of   240
     total cpu time spent up to now is       15.9 secs

     Computing kpt #:   163  of   240
     total cpu time spent up to now is       16.0 secs

     Computing kpt #:   164  of   240
     total cpu time spent up to now is       16.1 secs

     Computing kpt #:   165  of   240
     total cpu time spent up to now is       16.2 secs

     Computing kpt #:   166  of   240
     total cpu time spent up to now is       16.3 secs

     Computing kpt #:   167  of   240
     total cpu time spent up to now is       16.4 secs

     Computing kpt #:   168  of   240
     total cpu time spent up to now is       16.5 secs

     Computing kpt #:   169  of   240
     total cpu time spent up to now is       16.6 secs

     Computing kpt #:   170  of   240
     total cpu time spent up to now is       16.7 secs

     Computing kpt #:   171  of   240
     total cpu time spent up to now is       16.8 secs

     Computing kpt #:   172  of   240
     total cpu time spent up to now is       16.9 secs

     Computing kpt #:   173  of   240
     total cpu time spent up to now is       17.0 secs

     Computing kpt #:   174  of   240
     total cpu time spent up to now is       17.0 secs

     Computing kpt #:   175  of   240
     total cpu time spent up to now is       17.1 secs

     Computing kpt #:   176  of   240
     total cpu time spent up to now is       17.2 secs

     Computing kpt #:   177  of   240
     total cpu time spent up to now is       17.3 secs

     Computing kpt #:   178  of   240
     total cpu time spent up to now is       17.4 secs

     Computing kpt #:   179  of   240
     total cpu time spent up to now is       17.5 secs

     Computing kpt #:   180  of   240
     total cpu time spent up to now is       17.6 secs

     Computing kpt #:   181  of   240
     total cpu time spent up to now is       17.7 secs

     Computing kpt #:   182  of   240
     total cpu time spent up to now is       17.8 secs

     Computing kpt #:   183  of   240
     total cpu time spent up to now is       18.0 secs

     Computing kpt #:   184  of   240
     total cpu time spent up to now is       18.1 secs

     Computing kpt #:   185  of   240
     total cpu time spent up to now is       18.2 secs

     Computing kpt #:   186  of   240
     total cpu time spent up to now is       18.3 secs

     Computing kpt #:   187  of   240
     total cpu time spent up to now is       18.3 secs

     Computing kpt #:   188  of   240
     total cpu time spent up to now is       18.4 secs

     Computing kpt #:   189  of   240
     total cpu time spent up to now is       18.5 secs

     Computing kpt #:   190  of   240
     total cpu time spent up to now is       18.6 secs

     Computing kpt #:   191  of   240
     total cpu time spent up to now is       18.7 secs

     Computing kpt #:   192  of   240
     total cpu time spent up to now is       18.8 secs

     Computing kpt #:   193  of   240
     total cpu time spent up to now is       18.9 secs

     Computing kpt #:   194  of   240
     total cpu time spent up to now is       19.0 secs

     Computing kpt #:   195  of   240
     total cpu time spent up to now is       19.1 secs

     Computing kpt #:   196  of   240
     total cpu time spent up to now is       19.2 secs

     Computing kpt #:   197  of   240
     total cpu time spent up to now is       19.3 secs

     Computing kpt #:   198  of   240
     total cpu time spent up to now is       19.4 secs

     Computing kpt #:   199  of   240
     total cpu time spent up to now is       19.5 secs

     Computing kpt #:   200  of   240
     total cpu time spent up to now is       19.6 secs

     Computing kpt #:   201  of   240
     total cpu time spent up to now is       19.7 secs

     Computing kpt #:   202  of   240
     total cpu time spent up to now is       19.8 secs

     Computing kpt #:   203  of   240
     total cpu time spent up to now is       19.9 secs

     Computing kpt #:   204  of   240
     total cpu time spent up to now is       20.0 secs

     Computing kpt #:   205  of   240
     total cpu time spent up to now is       20.1 secs

     Computing kpt #:   206  of   240
     total cpu time spent up to now is       20.2 secs

     Computing kpt #:   207  of   240
     total cpu time spent up to now is       20.3 secs

     Computing kpt #:   208  of   240
     total cpu time spent up to now is       20.4 secs

     Computing kpt #:   209  of   240
     total cpu time spent up to now is       20.5 secs

     Computing kpt #:   210  of   240
     total cpu time spent up to now is       20.6 secs

     Computing kpt #:   211  of   240
     total cpu time spent up to now is       20.7 secs

     Computing kpt #:   212  of   240
     total cpu time spent up to now is       20.8 secs

     Computing kpt #:   213  of   240
     total cpu time spent up to now is       20.9 secs

     Computing kpt #:   214  of   240
     total cpu time spent up to now is       21.0 secs

     Computing kpt #:   215  of   240
     total cpu time spent up to now is       21.0 secs

     Computing kpt #:   216  of   240
     total cpu time spent up to now is       21.1 secs

     Computing kpt #:   217  of   240
     total cpu time spent up to now is       21.2 secs

     Computing kpt #:   218  of   240
     total cpu time spent up to now is       21.3 secs

     Computing kpt #:   219  of   240
     total cpu time spent up to now is       21.5 secs

     Computing kpt #:   220  of   240
     total cpu time spent up to now is       21.6 secs

     Computing kpt #:   221  of   240
     total cpu time spent up to now is       21.7 secs

     Computing kpt #:   222  of   240
     total cpu time spent up to now is       21.8 secs

     Computing kpt #:   223  of   240
     total cpu time spent up to now is       21.9 secs

     Computing kpt #:   224  of   240
     total cpu time spent up to now is       22.0 secs

     Computing kpt #:   225  of   240
     total cpu time spent up to now is       22.1 secs

     Computing kpt #:   226  of   240
     total cpu time spent up to now is       22.2 secs

     Computing kpt #:   227  of   240
     total cpu time spent up to now is       22.3 secs

     Computing kpt #:   228  of   240
     total cpu time spent up to now is       22.4 secs

     Computing kpt #:   229  of   240
     total cpu time spent up to now is       22.5 secs

     Computing kpt #:   230  of   240
     total cpu time spent up to now is       22.6 secs

     Computing kpt #:   231  of   240
     total cpu time spent up to now is       22.7 secs

     Computing kpt #:   232  of   240
     total cpu time spent up to now is       22.8 secs

     Computing kpt #:   233  of   240
     total cpu time spent up to now is       22.9 secs

     Computing kpt #:   234  of   240
     total cpu time spent up to now is       23.0 secs

     Computing kpt #:   235  of   240
     total cpu time spent up to now is       23.1 secs

     Computing kpt #:   236  of   240
     total cpu time spent up to now is       23.2 secs

     Computing kpt #:   237  of   240
     total cpu time spent up to now is       23.3 secs

     Computing kpt #:   238  of   240
     total cpu time spent up to now is       23.4 secs

     Computing kpt #:   239  of   240
     total cpu time spent up to now is       23.5 secs

     Computing kpt #:   240  of   240
     total cpu time spent up to now is       23.6 secs

     ethr =  3.13E-13,  avg # of iterations = 25.5

     total cpu time spent up to now is       24.2 secs

     End of band structure calculation

 ------ SPIN UP ------------


          k = 0.0000 0.0000 0.0000 (  1141 PWs)   bands (ev):

   -67.9533 -67.7622 -34.1863 -34.1863 -34.1863 -33.7994 -33.7994 -33.7994
    10.8498  14.5725  14.5725  17.4723  17.4723  17.4723  18.8961  18.8961
    20.2325  20.2325  20.2325  30.2115

     occupation numbers 
     1.0000   1.0000   1.0000   1.0000   1.0000   1.0000   1.0000   1.0000
     1.0000   1.0000   1.0000   1.0000   1.0000   1.0000   1.0000   1.0000
    -0.0875   0.0000   0.0000   0.0000

          k = 0.0000 0.0000 0.0667 (  1121 PWs)   bands (ev):

   -67.9511 -67.7635 -34.1850 -34.1815 -34.1815 -33.8079 -33.8035 -33.8035
    10.9481  14.6166  14.6194  17.4707  17.4707  17.5007  18.8472  18.9153
    20.1400  20.1400  20.2005  29.5521

     occupation numbers 
     1.0000   1.0000   1.0000   1.0000   1.0000   1.0000   1.0000   1.0000
     1.0000   1.0000   1.0000   1.0000   1.0000   1.0000   1.0000   1.0000
     0.1340  -0.0199   0.0000   0.0000

          k = 0.0000 0.0000 0.1333 (  1117 PWs)   bands (ev):

   -67.9441 -67.7686 -34.1832 -34.1681 -34.1681 -33.8314 -33.8154 -33.8154
    11.2396  14.7476  14.7515  17.4691  17.4691  17.5849  18.7026  18.9714
    19.8870  19.8870  20.1063  28.0736

     occupation numbers 
     1.0000   1.0000   1.0000   1.0000   1.0000   1.0000   1.0000   1.0000
     1.0000   1.0000   1.0000   1.0000   1.0000   1.0000   1.0000   1.0000
     0.9784   0.9027  -0.0005   0.0000

          k = 0.0000 0.0000 0.2000 (  1113 PWs)   bands (ev):

   -67.9327 -67.7772 -34.1792 -34.1467 -34.1467 -33.8680 -33.8345 -33.8345
    11.7109  14.9427  14.9609  17.4762  17.4762  17.7218  18.4684  19.0614
    19.5308  19.5308  19.9546  26.3535

     occupation numbers 
     1.0000   1.0000   1.0000   1.0000   1.0000   1.0000   1.0000   1.0000
     1.0000   1.0000   1.0000   1.0000   1.0000   1.0000   1.0000   1.0000
     1.0000   1.0000   0.3009   0.0000

          k = 0.0000 0.0000 0.2667 (  1117 PWs)   bands (ev):

   -67.9179 -67.7891 -34.1706 -34.1185 -34.1185 -33.9139 -33.8603 -33.8603
    12.3364  15.1470  15.2494  17.5043  17.5043  17.9063  18.1551  19.1321
    19.1321  19.1844  19.7530  24.6427

     occupation numbers 
     1.0000   1.0000   1.0000   1.0000   1.0000   1.0000   1.0000   1.0000
     1.0000   1.0000   1.0000   1.0000   1.0000   1.0000   1.0000   1.0000
     1.0000   1.0000   1.1053   0.0000

          k = 0.0000 0.0000 0.3333 (  1113 PWs)   bands (ev):

   -67.8999 -67.8041 -34.1559 -34.0849 -34.0849 -33.9637 -33.8917 -33.8917
    13.0739  15.2964  15.6027  17.5676  17.5676  17.7772  18.1316  18.7390
    18.7390  19.3512  19.5114  23.0667

     occupation numbers 
     1.0000   1.0000   1.0000   1.0000   1.0000   1.0000   1.0000   1.0000
     1.0000   1.0000   1.0000   1.0000   1.0000   1.0000   1.0000   1.0000
     1.0000   1.0000   1.0000   0.0000

          k = 0.0000 0.0000 0.4000 (  1133 PWs)   bands (ev):

   -67.8808 -67.8213 -34.1330 -34.0472 -34.0472 -34.0146 -33.9279 -33.9279
    13.8507  15.3010  16.0073  17.3528  17.6791  17.6791  18.3835  18.3835
    18.3887  19.2415  19.5989  21.7224

     occupation numbers 
     1.0000   1.0000   1.0000   1.0000   1.0000   1.0000   1.0000   1.0000
     1.0000   1.0000   1.0000   1.0000   1.0000   1.0000   1.0000   1.0000
     1.0000   1.0000   1.0720   0.0000

          k = 0.0000 0.0000 0.4667 (  1132 PWs)   bands (ev):

   -67.8605 -67.8403 -34.1012 -34.0613 -34.0072 -34.0072 -33.9670 -33.9670
    14.5590  15.0670  16.4468  16.9022  17.8494  17.8494  18.0843  18.0843
    18.6674  18.9558  20.0088  20.6935

     occupation numbers 
     1.0000   1.0000   1.0000   1.0000   1.0000   1.0000   1.0000   1.0000
     1.0000   1.0000   1.0000   1.0000   1.0000   1.0000   1.0000   1.0000
     1.0000   1.0000   0.3343   0.0000

          k = 0.0000 0.0667 0.0667 (  1117 PWs)   bands (ev):

   -67.9488 -67.7651 -34.1926 -34.1769 -34.1690 -33.8238 -33.8075 -33.7995
    11.0458  14.6603  14.6660  17.4140  17.4663  17.5841  18.8374  18.9007
    19.9774  20.0477  20.2457  29.5794

     occupation numbers 
     1.0000   1.0000   1.0000   1.0000   1.0000   1.0000   1.0000   1.0000
     1.0000   1.0000   1.0000   1.0000   1.0000   1.0000   1.0000   1.0000
     0.7148   0.2599   0.0000   0.0000

          k = 0.0000 0.0667 0.1333 (  1116 PWs)   bands (ev):

   -67.9419 -67.7702 -34.1970 -34.1638 -34.1501 -33.8533 -33.8191 -33.8049
    11.3347  14.7858  14.8010  17.3675  17.4562  17.7124  18.7184  18.9466
    19.6823  19.7964  20.2116  28.2041

     occupation numbers 
     1.0000   1.0000   1.0000   1.0000   1.0000   1.0000   1.0000   1.0000
     1.0000   1.0000   1.0000   1.0000   1.0000   1.0000   1.0000   1.0000
     1.0199   1.0241  -0.0006   0.0000

          k = 0.0000 0.0667 0.2000 (  1118 PWs)   bands (ev):

   -67.9308 -67.7786 -34.1970 -34.1430 -34.1255 -33.8934 -33.8377 -33.8196
    11.8011  14.9791  15.0072  17.3451  17.4481  17.8773  18.5089  19.0385
    19.3135  19.4461  20.0950  26.4794

     occupation numbers 
     1.0000   1.0000   1.0000   1.0000   1.0000   1.0000   1.0000   1.0000
     1.0000   1.0000   1.0000   1.0000   1.0000   1.0000   1.0000   1.0000
     1.0000   1.0000  -0.0163   0.0000

          k = 0.0000 0.0667 0.2667 (  1124 PWs)   bands (ev):

   -67.9162 -67.7903 -34.1915 -34.1154 -34.0955 -33.9408 -33.8629 -33.8424
    12.4188  15.1863  15.2837  17.3538  17.4447  18.0788  18.2405  18.9163
    19.0614  19.1637  19.9143  24.7599

     occupation numbers 
     1.0000   1.0000   1.0000   1.0000   1.0000   1.0000   1.0000   1.0000
     1.0000   1.0000   1.0000   1.0000   1.0000   1.0000   1.0000   1.0000
     1.0000   1.0000   0.7319   0.0000

          k = 0.0000 0.0667 0.3333 (  1117 PWs)   bands (ev):

   -67.8987 -67.8047 -34.1788 -34.0822 -34.0609 -33.9915 -33.8936 -33.8717
    13.1442  15.3330  15.6243  17.4035  17.4108  17.9773  18.3138  18.5301
    18.6954  19.3327  19.6856  23.1700

     occupation numbers 
     1.0000   1.0000   1.0000   1.0000   1.0000   1.0000   1.0000   1.0000
     1.0000   1.0000   1.0000   1.0000   1.0000   1.0000   1.0000   1.0000
     1.0000   1.0000   1.0407   0.0000

          k = 0.0000 0.0667 0.4000 (  1120 PWs)   bands (ev):

   -67.8797 -67.8215 -34.1575 -34.0454 -34.0421 -34.0231 -33.9287 -33.9060
    13.9053  15.3311  16.0126  17.2120  17.5047  17.8796  18.1830  18.3845
    18.5759  19.4236  19.5875  21.8013

     occupation numbers 
     1.0000   1.0000   1.0000   1.0000   1.0000   1.0000   1.0000   1.0000
     1.0000   1.0000   1.0000   1.0000   1.0000   1.0000   1.0000   1.0000
     1.0000   1.0000   1.0749   0.0000

          k = 0.0000 0.0667 0.4667 (  1129 PWs)   bands (ev):

   -67.8599 -67.8402 -34.1274 -34.0882 -34.0064 -33.9835 -33.9669 -33.9439
    14.5958  15.0944  16.4289  16.8460  17.6660  17.8924  17.9682  18.1434
    18.8558  19.1426  20.0177  20.7372

     occupation numbers 
     1.0000   1.0000   1.0000   1.0000   1.0000   1.0000   1.0000   1.0000
     1.0000   1.0000   1.0000   1.0000   1.0000   1.0000   1.0000   1.0000
     1.0000   1.0000   0.3023   0.0000

          k = 0.0000 0.1333 0.1333 (  1123 PWs)   bands (ev):

   -67.9353 -67.7750 -34.2118 -34.1518 -34.1226 -33.8914 -33.8298 -33.7996
    11.6155  14.8935  14.9457  17.2515  17.4240  17.9078  18.7188  18.9162
    19.3282  19.5533  20.2833  28.1941

     occupation numbers 
     1.0000   1.0000   1.0000   1.0000   1.0000   1.0000   1.0000   1.0000
     1.0000   1.0000   1.0000   1.0000   1.0000   1.0000   1.0000   1.0000
     1.0000   1.0298   0.0000   0.0000

          k = 0.0000 0.1333 0.2000 (  1121 PWs)   bands (ev):

   -67.9249 -67.7827 -34.2209 -34.1322 -34.0912 -33.9382 -33.8471 -33.8049
    12.0662  15.0572  15.1653  17.1667  17.3848  18.1306  18.6020  18.9270
    18.9805  19.2246  20.2601  26.7585

     occupation numbers 
     1.0000   1.0000   1.0000   1.0000   1.0000   1.0000   1.0000   1.0000
     1.0000   1.0000   1.0000   1.0000   1.0000   1.0000   1.0000   1.0000
     1.0000   1.0000  -0.0107   0.0000

          k = 0.0000 0.1333 0.2667 (  1119 PWs)   bands (ev):

   -67.9110 -67.7934 -34.2233 -34.1062 -34.0566 -33.9899 -33.8704 -33.8194
    12.6582  15.2413  15.4368  17.1229  17.3413  18.3769  18.4218  18.5199
    18.8841  19.1055  20.1516  25.0514

     occupation numbers 
     1.0000   1.0000   1.0000   1.0000   1.0000   1.0000   1.0000   1.0000
     1.0000   1.0000   1.0000   1.0000   1.0000   1.0000   1.0000   1.0000
     1.0000   1.0000  -0.0357   0.0000

          k = 0.0000 0.1333 0.3333 (  1120 PWs)   bands (ev):

   -67.8947 -67.8069 -34.2172 -34.0752 -34.0431 -34.0194 -33.8989 -33.8420
    13.3431  15.3728  15.7485  17.1297  17.2630  18.1381  18.2614  18.5949
    18.6429  19.2783  19.9750  23.4346

     occupation numbers 
     1.0000   1.0000   1.0000   1.0000   1.0000   1.0000   1.0000   1.0000
     1.0000   1.0000   1.0000   1.0000   1.0000   1.0000   1.0000   1.0000
     1.0000   1.0000   0.5441   0.0000

          k = 0.0000 0.1333 0.4000 (  1119 PWs)   bands (ev):

   -67.8768 -67.8224 -34.2013 -34.0940 -34.0405 -33.9808 -33.9317 -33.8710
    14.0476  15.3578  16.0940  17.0882  17.1961  17.8041  18.1966  18.3971
    18.9227  19.5523  19.7479  22.0090

     occupation numbers 
     1.0000   1.0000   1.0000   1.0000   1.0000   1.0000   1.0000   1.0000
     1.0000   1.0000   1.0000   1.0000   1.0000   1.0000   1.0000   1.0000
     1.0000   1.0000   1.0676   0.0000

          k = 0.0000 0.1333 0.4667 (  1118 PWs)   bands (ev):

   -67.8581 -67.8398 -34.1750 -34.1387 -34.0040 -33.9671 -33.9421 -33.9049
    14.6743  15.1283  16.4559  16.8029  17.3290  17.5321  18.2233  18.2871
    19.2077  19.4872  20.0423  20.8570

     occupation numbers 
     1.0000   1.0000   1.0000   1.0000   1.0000   1.0000   1.0000   1.0000
     1.0000   1.0000   1.0000   1.0000   1.0000   1.0000   1.0000   1.0000
     1.0000   1.0000   0.1693   0.0000

          k = 0.0000 0.2000 0.2000 (  1117 PWs)   bands (ev):

   -67.9154 -67.7894 -34.2399 -34.1146 -34.0539 -33.9905 -33.8623 -33.7997
    12.4870  15.1662  15.4096  17.0186  17.3233  18.4077  18.5073  18.6646
    18.9415  18.9456  20.3389  26.5885

     occupation numbers 
     1.0000   1.0000   1.0000   1.0000   1.0000   1.0000   1.0000   1.0000
     1.0000   1.0000   1.0000   1.0000   1.0000   1.0000   1.0000   1.0000
     1.0000   1.0000   0.0000   0.0000

          k = 0.0000 0.2000 0.2667 (  1120 PWs)   bands (ev):

   -67.9029 -67.7988 -34.2515 -34.0915 -34.0455 -34.0155 -33.8827 -33.8047
    13.0276  15.2748  15.7090  16.9171  17.2829  18.0974  18.6086  18.6785
    18.6977  19.0269  20.3233  25.2948

     occupation numbers 
     1.0000   1.0000   1.0000   1.0000   1.0000   1.0000   1.0000   1.0000
[...]

     occupation numbers 
     1.0000   1.0000   1.0000   1.0000   1.0000   1.0000   1.0000   1.0000
     1.0000   1.0000   1.0000   1.0000   1.0071   1.0111   0.0000   0.0000
     0.0000   0.0000   0.0000   0.0000

          k = 0.1333 0.4667 0.4667 (  1115 PWs)   bands (ev):

   -65.4086 -65.4064 -31.9776 -31.9744 -31.6266 -31.6198 -31.4404 -31.4380
    15.9914  16.0391  17.7561  17.7709  19.6323  19.6362  21.3496  21.3758
    21.7405  21.7987  23.6208  23.7994

     occupation numbers 
     1.0000   1.0000   1.0000   1.0000   1.0000   1.0000   1.0000   1.0000
     1.0000   1.0000   1.0000   1.0000   1.0196   1.0157   0.0000   0.0000
     0.0000   0.0000   0.0000   0.0000

          k = 0.2000 0.2000 0.2000 (  1111 PWs)   bands (ev):

   -65.4717 -65.3623 -31.8441 -31.8441 -31.7080 -31.5967 -31.4561 -31.4561
    13.5560  17.2668  17.2668  18.5159  18.5159  18.9618  21.0331  21.3399
    21.3399  21.6356  21.6356  28.9901

     occupation numbers 
     1.0000   1.0000   1.0000   1.0000   1.0000   1.0000   1.0000   1.0000
     1.0000   1.0000   1.0000   1.0000   1.0000   1.0033   0.0000   0.0000
     0.0000   0.0000   0.0000   0.0000

          k = 0.2000 0.2000 0.2667 (  1114 PWs)   bands (ev):

   -65.4605 -65.3702 -31.8717 -31.8092 -31.7548 -31.5632 -31.4882 -31.4513
    14.0986  17.4044  17.4161  18.3770  18.3954  18.6204  21.2214  21.2999
    21.4145  21.5045  21.7771  27.5588

     occupation numbers 
     1.0000   1.0000   1.0000   1.0000   1.0000   1.0000   1.0000   1.0000
     1.0000   1.0000   1.0000   1.0000   1.0000   1.0000   0.0000   0.0000
     0.0000   0.0000   0.0000   0.0000

          k = 0.2000 0.2000 0.3333 (  1124 PWs)   bands (ev):

   -65.4476 -65.3799 -31.8900 -31.8005 -31.7675 -31.5331 -31.5277 -31.4521
    14.7199  17.2826  17.5790  18.2691  18.3295  18.5416  21.0353  21.0851
    21.6125  21.8202  21.8743  26.1156

     occupation numbers 
     1.0000   1.0000   1.0000   1.0000   1.0000   1.0000   1.0000   1.0000
     1.0000   1.0000   1.0000   1.0000   1.0000   1.0000   0.0000   0.0000
     0.0000   0.0000   0.0000   0.0000

          k = 0.2000 0.2000 0.4000 (  1114 PWs)   bands (ev):

   -65.4332 -65.3914 -31.8964 -31.8403 -31.7206 -31.5724 -31.5071 -31.4580
    15.3606  16.9345  17.7392  18.1439  18.3809  18.6040  20.8708  20.9517
    21.7035  21.8039  22.3780  24.8472

     occupation numbers 
     1.0000   1.0000   1.0000   1.0000   1.0000   1.0000   1.0000   1.0000
     1.0000   1.0000   1.0000   1.0000   1.0000   1.0000   0.0000   0.0000
     0.0000   0.0000   0.0000   0.0000

          k = 0.2000 0.2000 0.4667 (  1119 PWs)   bands (ev):

   -65.4187 -65.4045 -31.8904 -31.8713 -31.6711 -31.6209 -31.4857 -31.4693
    15.9600  16.4853  17.8860  18.0186  18.4994  18.6013  20.8136  20.8501
    21.7479  21.7739  23.0038  23.8107

     occupation numbers 
     1.0000   1.0000   1.0000   1.0000   1.0000   1.0000   1.0000   1.0000
     1.0000   1.0000   1.0000   1.0000   1.0000   1.0000   0.0000   0.0000
     0.0000   0.0000   0.0000   0.0000

          k = 0.2000 0.2667 0.2667 (  1120 PWs)   bands (ev):

   -65.4509 -65.3764 -31.8769 -31.8025 -31.7954 -31.5339 -31.5032 -31.4598
    14.6044  17.3917  17.6980  18.2102  18.2812  18.2868  21.2501  21.3020
    21.4980  21.7489  21.8449  27.5697

     occupation numbers 
     1.0000   1.0000   1.0000   1.0000   1.0000   1.0000   1.0000   1.0000
     1.0000   1.0000   1.0000   1.0000   1.0000   1.0000   0.0000   0.0000
     0.0000   0.0000   0.0000   0.0000

          k = 0.2000 0.2667 0.3333 (  1116 PWs)   bands (ev):

   -65.4397 -65.3840 -31.8945 -31.8346 -31.7676 -31.5371 -31.5092 -31.4597
    15.1632  17.2298  17.8247  18.0932  18.2260  18.2753  21.1101  21.2473
    21.6078  21.7963  22.2925  26.4889

     occupation numbers 
     1.0000   1.0000   1.0000   1.0000   1.0000   1.0000   1.0000   1.0000
     1.0000   1.0000   1.0000   1.0000   1.0000   1.0000   0.0000   0.0000
     0.0000   0.0000   0.0000   0.0000

          k = 0.2000 0.2667 0.4000 (  1118 PWs)   bands (ev):

   -65.4278 -65.3933 -31.9055 -31.8682 -31.7234 -31.5795 -31.4896 -31.4609
    15.7060  16.9323  17.8454  18.0029  18.2758  18.4345  21.0320  21.1547
    21.7100  21.8053  22.8002  25.2779

     occupation numbers 
     1.0000   1.0000   1.0000   1.0000   1.0000   1.0000   1.0000   1.0000
     1.0000   1.0000   1.0000   1.0000   1.0000   1.0000   0.0000   0.0000
     0.0000   0.0000   0.0000   0.0000

          k = 0.2000 0.2667 0.4667 (  1117 PWs)   bands (ev):

   -65.4156 -65.4040 -31.9052 -31.8925 -31.6753 -31.6264 -31.4752 -31.4658
    16.1800  16.5802  17.8795  17.9314  18.3993  18.4847  21.0256  21.0728
    21.7656  21.7907  23.4286  24.2429

     occupation numbers 
     1.0000   1.0000   1.0000   1.0000   1.0000   1.0000   1.0000   1.0000
     1.0000   1.0000   1.0000   1.0000   1.0000   1.0000   0.0000   0.0000
     0.0000   0.0000   0.0000   0.0000

          k = 0.2000 0.3333 0.3333 (  1117 PWs)   bands (ev):

   -65.4311 -65.3893 -31.9080 -31.8679 -31.7450 -31.5588 -31.4905 -31.4633
    15.6123  17.0136  17.9578  18.0525  18.2183  18.2335  21.1285  21.3397
    21.6207  21.8242  22.7478  26.2998

     occupation numbers 
     1.0000   1.0000   1.0000   1.0000   1.0000   1.0000   1.0000   1.0000
     1.0000   1.0000   1.0000   1.0000   1.0000   1.0000   0.0000   0.0000
     0.0000   0.0000   0.0000   0.0000

          k = 0.2000 0.3333 0.4000 (  1114 PWs)   bands (ev):

   -65.4218 -65.3958 -31.9197 -31.8958 -31.7098 -31.5906 -31.4774 -31.4641
    15.9950  16.7724  17.8748  17.9406  18.3639  18.4898  21.1625  21.3237
    21.6945  21.8278  23.2434  25.4956

     occupation numbers 
     1.0000   1.0000   1.0000   1.0000   1.0000   1.0000   1.0000   1.0000
     1.0000   1.0000   1.0000   1.0000   1.0000   1.0000   0.0000   0.0000
     0.0000   0.0000   0.0000   0.0000

          k = 0.2000 0.3333 0.4667 (  1112 PWs)   bands (ev):

   -65.4124 -65.4037 -31.9227 -31.9147 -31.6696 -31.6286 -31.4694 -31.4654
    16.2901  16.5351  17.8440  17.8665  18.5391  18.6103  21.2144  21.2701
    21.7602  21.8020  23.8392  24.5958

     occupation numbers 
     1.0000   1.0000   1.0000   1.0000   1.0000   1.0000   1.0000   1.0000
     1.0000   1.0000   1.0000   1.0000   1.0000   1.0000   0.0000   0.0000
     0.0000   0.0000   0.0000   0.0000

          k = 0.2000 0.4000 0.4000 (  1120 PWs)   bands (ev):

   -65.4155 -65.3996 -31.9324 -31.9186 -31.6864 -31.6076 -31.4706 -31.4660
    16.1856  16.5930  17.7801  17.8560  18.6140  18.7536  21.2722  21.4064
    21.7058  21.8259  23.7009  25.3071

     occupation numbers 
     1.0000   1.0000   1.0000   1.0000   1.0000   1.0000   1.0000   1.0000
     1.0000   1.0000   1.0000   1.0000   1.0000   1.0000   0.0000   0.0000
     0.0000   0.0000   0.0000   0.0000

          k = 0.2000 0.4000 0.4667 (  1111 PWs)   bands (ev):

   -65.4094 -65.4040 -31.9377 -31.9331 -31.6583 -31.6309 -31.4674 -31.4666
    16.3152  16.4407  17.7437  17.7722  18.8562  18.9172  21.3547  21.4025
    21.7486  21.7933  24.2096  24.7859

     occupation numbers 
     1.0000   1.0000   1.0000   1.0000   1.0000   1.0000   1.0000   1.0000
     1.0000   1.0000   1.0000   1.0000   1.0000   1.0000   0.0000   0.0000
     0.0000   0.0000   0.0000   0.0000

          k = 0.2000 0.4667 0.4667 (  1110 PWs)   bands (ev):

   -65.4068 -65.4050 -31.9456 -31.9441 -31.6460 -31.6363 -31.4675 -31.4675
    16.3255  16.3639  17.6886  17.6997  19.1129  19.1369  21.4343  21.4527
    21.7500  21.7691  24.5283  24.7513

     occupation numbers 
     1.0000   1.0000   1.0000   1.0000   1.0000   1.0000   1.0000   1.0000
     1.0000   1.0000   1.0000   1.0000   1.0000   1.0000   0.0000   0.0000
     0.0000   0.0000   0.0000   0.0000

          k = 0.2667 0.2667 0.2667 (  1111 PWs)   bands (ev):

   -65.4425 -65.3809 -31.8395 -31.8395 -31.8251 -31.5111 -31.4944 -31.4944
    15.0971  17.7187  17.7188  17.8759  18.0913  18.0913  21.4467  21.4467
    21.4857  21.4857  22.3124  28.4648

     occupation numbers 
     1.0000   1.0000   1.0000   1.0000   1.0000   1.0000   1.0000   1.0000
     1.0000   1.0000   1.0000   1.0000   1.0000   1.0000   0.0000   0.0000
     0.0000   0.0000   0.0000   0.0000

          k = 0.2667 0.2667 0.3333 (  1120 PWs)   bands (ev):

   -65.4332 -65.3871 -31.8695 -31.8544 -31.7947 -31.5367 -31.4942 -31.4863
    15.6258  17.4532  17.7346  17.9772  18.0123  18.0802  21.3062  21.3803
    21.5895  21.6363  22.7998  27.1616

     occupation numbers 
     1.0000   1.0000   1.0000   1.0000   1.0000   1.0000   1.0000   1.0000
     1.0000   1.0000   1.0000   1.0000   1.0000   1.0000   0.0000   0.0000
     0.0000   0.0000   0.0000   0.0000

          k = 0.2667 0.2667 0.4000 (  1113 PWs)   bands (ev):

   -65.4230 -65.3944 -31.8891 -31.8782 -31.7444 -31.5850 -31.4830 -31.4800
    16.1082  17.1147  17.7491  17.8821  18.0696  18.2969  21.2162  21.3067
    21.6987  21.7179  23.3389  25.9042

     occupation numbers 
     1.0000   1.0000   1.0000   1.0000   1.0000   1.0000   1.0000   1.0000
     1.0000   1.0000   1.0000   1.0000   1.0000   1.0000   0.0000   0.0000
     0.0000   0.0000   0.0000   0.0000

          k = 0.2667 0.2667 0.4667 (  1117 PWs)   bands (ev):

   -65.4128 -65.4032 -31.8974 -31.8933 -31.6910 -31.6372 -31.4775 -31.4767
    16.4933  16.8081  17.7717  17.8137  18.2221  18.3387  21.2020  21.2404
    21.7526  21.7545  23.9952  24.8387

     occupation numbers 
     1.0000   1.0000   1.0000   1.0000   1.0000   1.0000   1.0000   1.0000
     1.0000   1.0000   1.0000   1.0000   1.0000   1.0000   0.0000   0.0000
     0.0000   0.0000   0.0000   0.0000

          k = 0.2667 0.3333 0.3333 (  1118 PWs)   bands (ev):

   -65.4255 -65.3912 -31.8738 -31.8684 -31.7848 -31.5542 -31.5003 -31.4854
    16.0891  17.2803  17.8568  17.8637  17.9438  18.0827  21.3553  21.4617
    21.6085  21.6393  23.3225  27.2412

     occupation numbers 
     1.0000   1.0000   1.0000   1.0000   1.0000   1.0000   1.0000   1.0000
     1.0000   1.0000   1.0000   1.0000   1.0000   1.0000   0.0000   0.0000
     0.0000   0.0000   0.0000   0.0000

          k = 0.2667 0.3333 0.4000 (  1105 PWs)   bands (ev):

   -65.4175 -65.3963 -31.8890 -31.8841 -31.7437 -31.5942 -31.4970 -31.4823
    16.4510  17.0555  17.7810  17.8082  18.0306  18.2824  21.3472  21.4421
    21.6905  21.7063  23.8845  26.3578

     occupation numbers 
     1.0000   1.0000   1.0000   1.0000   1.0000   1.0000   1.0000   1.0000
     1.0000   1.0000   1.0000   1.0000   1.0000   1.0000   0.0000   0.0000
     0.0000   0.0000   0.0000   0.0000

          k = 0.2667 0.3333 0.4667 (  1103 PWs)   bands (ev):

   -65.4097 -65.4025 -31.8968 -31.8952 -31.6940 -31.6429 -31.4902 -31.4845
    16.6836  16.8624  17.7479  17.7587  18.2193  18.3406  21.3620  21.3983
    21.7446  21.7470  24.5470  25.3729

     occupation numbers 
     1.0000   1.0000   1.0000   1.0000   1.0000   1.0000   1.0000   1.0000
     1.0000   1.0000   1.0000   1.0000   1.0000   1.0000   0.0000   0.0000
     0.0000   0.0000   0.0000   0.0000

          k = 0.2667 0.4000 0.4000 (  1112 PWs)   bands (ev):

   -65.4121 -65.3992 -31.8977 -31.8908 -31.7201 -31.6146 -31.5049 -31.4870
    16.6423  16.9196  17.7001  17.7648  18.2053  18.4414  21.4278  21.5100
    21.7111  21.7320  24.4468  26.3148

     occupation numbers 
     1.0000   1.0000   1.0000   1.0000   1.0000   1.0000   1.0000   1.0000
     1.0000   1.0000   1.0000   1.0000   1.0000   1.0000   0.0000   0.0000
     0.0000   0.0000   0.0000   0.0000

          k = 0.2667 0.4000 0.4667 (  1102 PWs)   bands (ev):

   -65.4069 -65.4026 -31.9015 -31.8987 -31.6844 -31.6467 -31.5020 -31.4945
    16.7304  16.8086  17.6697  17.6961  18.4329  18.5303  21.4771  21.5074
    21.7470  21.7540  25.0648  25.7462

     occupation numbers 
     1.0000   1.0000   1.0000   1.0000   1.0000   1.0000   1.0000   1.0000
     1.0000   1.0000   1.0000   1.0000   1.0000   1.0000   0.0000   0.0000
     0.0000   0.0000   0.0000   0.0000

          k = 0.2667 0.4667 0.4667 (  1105 PWs)   bands (ev):

   -65.4048 -65.4033 -31.9042 -31.9030 -31.6685 -31.6545 -31.5073 -31.5037
    16.7320  16.7536  17.6222  17.6334  18.6412  18.6787  21.5362  21.5480
    21.7607  21.7641  25.5220  25.8066

     occupation numbers 
     1.0000   1.0000   1.0000   1.0000   1.0000   1.0000   1.0000   1.0000
     1.0000   1.0000   1.0000   1.0000   1.0000   1.0000   0.0000   0.0000
     0.0000   0.0000   0.0000   0.0000

          k = 0.3333 0.3333 0.3333 (  1118 PWs)   bands (ev):

   -65.4196 -65.3938 -31.8797 -31.8205 -31.8205 -31.5456 -31.5456 -31.4865
    16.5675  17.3032  17.7689  17.7689  17.9426  17.9426  21.5360  21.5360
    21.5868  21.5868  23.9112  28.2697

     occupation numbers 
     1.0000   1.0000   1.0000   1.0000   1.0000   1.0000   1.0000   1.0000
     1.0000   1.0000   1.0000   1.0000   1.0000   1.0000   0.0000   0.0000
     0.0000   0.0000   0.0000   0.0000

          k = 0.3333 0.3333 0.4000 (  1104 PWs)   bands (ev):

   -65.4131 -65.3972 -31.8827 -31.8494 -31.7670 -31.5970 -31.5329 -31.4932
    16.8918  17.1794  17.7122  17.8045  17.8209  18.1222  21.4968  21.5571
    21.6620  21.6884  24.5340  27.1617

     occupation numbers 
     1.0000   1.0000   1.0000   1.0000   1.0000   1.0000   1.0000   1.0000
     1.0000   1.0000   1.0000   1.0000   1.0000   1.0000   0.0000   0.0000
     0.0000   0.0000   0.0000   0.0000

          k = 0.3333 0.3333 0.4667 (  1107 PWs)   bands (ev):

   -65.4072 -65.4017 -31.8803 -31.8695 -31.7101 -31.6526 -31.5187 -31.5047
    17.0091  17.0771  17.6993  17.7363  18.0158  18.1615  21.4995  21.5246
    21.7316  21.7410  25.2490  26.1201

     occupation numbers 
     1.0000   1.0000   1.0000   1.0000   1.0000   1.0000   1.0000   1.0000
     1.0000   1.0000   1.0000   1.0000   1.0000   1.0000   0.0000   0.0000
     0.0000   0.0000   0.0000   0.0000

          k = 0.3333 0.4000 0.4000 (  1106 PWs)   bands (ev):

   -65.4088 -65.3989 -31.8762 -31.8406 -31.7537 -31.6152 -31.5524 -31.5091
    17.1277  17.1572  17.6393  17.7861  17.8620  18.1536  21.5716  21.6181
    21.6931  21.7124  25.2019  27.4040

     occupation numbers 
     1.0000   1.0000   1.0000   1.0000   1.0000   1.0000   1.0000   1.0000
     1.0000   1.0000   1.0000   1.0000   1.0000   1.0000   0.0000   0.0000
     0.0000   0.0000   0.0000   0.0000

          k = 0.3333 0.4000 0.4667 (  1107 PWs)   bands (ev):

   -65.4048 -65.4015 -31.8670 -31.8539 -31.7092 -31.6588 -31.5445 -31.5275
    17.1307  17.1405  17.6313  17.6876  18.0819  18.1989  21.5970  21.6150
    21.7438  21.7505  25.9290  26.7342

     occupation numbers 
     1.0000   1.0000   1.0000   1.0000   1.0000   1.0000   1.0000   1.0000
     1.0000   1.0000   1.0000   1.0000   1.0000   1.0000   0.0000   0.0000
     0.0000   0.0000   0.0000   0.0000

          k = 0.3333 0.4667 0.4667 (  1103 PWs)   bands (ev):

   -65.4029 -65.4018 -31.8574 -31.8517 -31.6914 -31.6704 -31.5560 -31.5475
    17.1357  17.1476  17.5782  17.6038  18.2482  18.2914  21.6403  21.6472
    21.7684  21.7705  26.5571  26.9409

     occupation numbers 
     1.0000   1.0000   1.0000   1.0000   1.0000   1.0000   1.0000   1.0000
     1.0000   1.0000   1.0000   1.0000   1.0000   1.0000   0.0000   0.0000
     0.0000   0.0000   0.0000   0.0000

          k = 0.4000 0.4000 0.4000 (  1106 PWs)   bands (ev):

   -65.4056 -65.3994 -31.8552 -31.7846 -31.7846 -31.6063 -31.6063 -31.5356
    17.2482  17.5441  17.6174  17.6174  17.9183  17.9183  21.6845  21.6845
    21.7086  21.7086  25.9676  28.5628

     occupation numbers 
     1.0000   1.0000   1.0000   1.0000   1.0000   1.0000   1.0000   1.0000
     1.0000   1.0000   1.0000   1.0000   1.0000   1.0000   0.0000   0.0000
     0.0000   0.0000   0.0000   0.0000

          k = 0.4000 0.4000 0.4667 (  1096 PWs)   bands (ev):

   -65.4027 -65.4006 -31.8340 -31.8111 -31.7249 -31.6647 -31.5879 -31.5630
    17.3061  17.4116  17.6505  17.7494  17.8720  17.9852  21.6902  21.7002
    21.7504  21.7581  26.7790  27.6675

     occupation numbers 
     1.0000   1.0000   1.0000   1.0000   1.0000   1.0000   1.0000   1.0000
     1.0000   1.0000   1.0000   1.0000   1.0000   1.0000   0.0000   0.0000
     0.0000   0.0000   0.0000   0.0000

          k = 0.4000 0.4667 0.4667 (  1082 PWs)   bands (ev):

   -65.4010 -65.4004 -31.8077 -31.7941 -31.7121 -31.6782 -31.6113 -31.5953
    17.4020  17.4912  17.5772  17.6626  17.9469  17.9879  21.7280  21.7317
    21.7748  21.7776  27.5951  28.1404

     occupation numbers 
     1.0000   1.0000   1.0000   1.0000   1.0000   1.0000   1.0000   1.0000
     1.0000   1.0000   1.0000   1.0000   1.0000   1.0000   0.0000   0.0000
     0.0000   0.0000   0.0000   0.0000

          k = 0.4667 0.4667 0.4667 (  1088 PWs)   bands (ev):

   -65.4002 -65.3999 -31.7633 -31.7331 -31.7331 -31.6713 -31.6713 -31.6410
    17.5337  17.6368  17.6368  17.7708  17.7708  17.7888  21.7796  21.7796
    21.7808  21.7808  28.5908  29.3948

     occupation numbers 
     1.0000   1.0000   1.0000   1.0000   1.0000   1.0000   1.0000   1.0000
     1.0000   1.0000   1.0000   1.0000   1.0000   1.0000   0.0000   0.0000
     0.0000   0.0000   0.0000   0.0000

     the Fermi energy is    19.9734 ev
     (compare with:    19.9758 eV, computed in scf)

     Writing all to output data dir ./temp/fe.save/ :
     XML data file, pseudopotentials, collected wavefunctions

     init_run     :      0.59s CPU      0.63s WALL (       1 calls)
     electrons    :     21.88s CPU     23.04s WALL (       1 calls)

     Called by init_run:
     wfcinit      :      0.00s CPU      0.00s WALL (       1 calls)
     wfcinit:atom :      0.02s CPU      0.02s WALL (     240 calls)
     wfcinit:wfcr :      0.68s CPU      0.74s WALL (     240 calls)
     potinit      :      0.18s CPU      0.19s WALL (       1 calls)
     hinit0       :      0.34s CPU      0.35s WALL (       1 calls)

     Called by electrons:
     c_bands      :     21.31s CPU     22.47s WALL (       1 calls)
     v_of_rho     :      0.02s CPU      0.02s WALL (       1 calls)
     v_h          :      0.00s CPU      0.00s WALL (       1 calls)
     v_xc         :      0.02s CPU      0.02s WALL (       1 calls)
     newd         :      0.04s CPU      0.05s WALL (       1 calls)
     PAW_pot      :      0.14s CPU      0.15s WALL (       1 calls)

     Called by c_bands:
     init_us_2    :      0.02s CPU      0.03s WALL (     240 calls)
     cegterg      :     20.46s CPU     21.54s WALL (     417 calls)

     Called by sum_band:

     Called by *egterg:
     cdiaghg      :      2.89s CPU      3.04s WALL (    6350 calls)
     cegterg:over :      2.26s CPU      2.39s WALL (    6110 calls)
     cegterg:upda :      1.07s CPU      1.11s WALL (    6110 calls)
     cegterg:last :      3.01s CPU      3.15s WALL (    4273 calls)
     h_psi        :     10.10s CPU     10.67s WALL (    6767 calls)
     s_psi        :      1.17s CPU      1.24s WALL (    6767 calls)
     g_psi        :      0.07s CPU      0.07s WALL (    6110 calls)

     Called by h_psi:
     h_psi:calbec :      1.27s CPU      1.35s WALL (    6767 calls)
     vloc_psi     :      7.62s CPU      8.02s WALL (    6767 calls)
     add_vuspsi   :      1.15s CPU      1.23s WALL (    6767 calls)

     General routines
     calbec       :      1.25s CPU      1.34s WALL (    6767 calls)
     fft          :      0.13s CPU      0.13s WALL (      23 calls)
     ffts         :      0.02s CPU      0.02s WALL (       2 calls)
     fftw         :      6.56s CPU      6.91s WALL (  186370 calls)
     interpolate  :      0.02s CPU      0.02s WALL (       2 calls)
     davcio       :      0.02s CPU      0.02s WALL (     480 calls)

     Parallel routines

     PAW routines
     PAW_pot      :      0.14s CPU      0.15s WALL (       1 calls)

     PWSCF        :     23.06s CPU     24.38s WALL


   This run was terminated on:  21:12:12  23Dec2024            

=------------------------------------------------------------------------------=
   JOB DONE.
=------------------------------------------------------------------------------=
