
     Program PWSCF v.7.3.1 starts on 21Dec2024 at 19:59: 3 

     This program is part of the open-source Quantum ESPRESSO suite
     for quantum simulation of materials; please cite
         "P. Giannozzi et al., J. Phys.:Condens. Matter 21 395502 (2009);
         "P. Giannozzi et al., J. Phys.:Condens. Matter 29 465901 (2017);
         "P. Giannozzi et al., J. Chem. Phys. 152 154105 (2020);
          URL http://www.quantum-espresso.org", 
     in publications or presentations arising from this work. More details at
     http://www.quantum-espresso.org/quote

     Parallel version (MPI), running on     8 processors

     MPI processes distributed on     1 nodes
     11137 MiB available memory on the printing compute node when the environment starts

     Reading input from vc_relax.in

     Current dimensions of program PWSCF are:
     Max number of different atomic species (ntypx) = 10
     Max number of k-points (npk) =  40000
     Max angular momentum in pseudopotentials (lmaxx) =  4
     file Si.pbesol-n-kjpaw_psl.1.0.0.UPF: wavefunction(s)  3S 3P renormalized

     R & G space division:  proc/nbgrp/npool/nimage =       8
     Subspace diagonalization in iterative solution of the eigenvalue problem:
     a serial algorithm will be used


     Parallelization info
     --------------------
     sticks:   dense  smooth     PW     G-vecs:    dense   smooth      PW
     Min          72      72     23                 1169     1169     204
     Max          73      73     24                 1173     1173     206
     Sum         583     583    187                 9377     9377    1639

     Using Slab Decomposition



     bravais-lattice index     =           -5
     lattice parameter (alat)  =       7.2754  a.u.
     unit-cell volume          =     272.3101 (a.u.)^3
     number of atoms/cell      =            2
     number of atomic types    =            1
     number of electrons       =         8.00
     number of Kohn-Sham states=            8
     kinetic-energy cutoff     =      40.0000  Ry
     charge density cutoff     =     160.0000  Ry
     scf convergence threshold =      1.0E-08
     mixing beta               =       0.7000
     number of iterations used =            8  plain     mixing
     energy convergence thresh.=      1.0E-06
     force convergence thresh. =      1.0E-05
     press convergence thresh. =      5.0E-01
     Exchange-correlation= SLA  PW   PSX  PSC
                           (   1   4  10   8   0   0   0)
     nstep                     =           50


     celldm(1)=   7.275446  celldm(2)=   0.000000  celldm(3)=   0.000000
     celldm(4)=   0.500000  celldm(5)=   0.000000  celldm(6)=   0.000000

     crystal axes: (cart. coord. in units of alat)
               a(1) = (   0.000000   0.707107   0.707107 )  
               a(2) = (   0.707107   0.000000   0.707107 )  
               a(3) = (   0.707107   0.707107   0.000000 )  

     reciprocal axes: (cart. coord. in units 2 pi/alat)
               b(1) = ( -0.707107  0.707107  0.707107 )  
               b(2) = (  0.707107 -0.707107  0.707107 )  
               b(3) = (  0.707107  0.707107 -0.707107 )  


     PseudoPot. # 1 for Si read from file:
     ./../../pseudos/Si.pbesol-n-kjpaw_psl.1.0.0.UPF
     MD5 check sum: 9fbd692c527d147d9ad0870b71777ff4
     Pseudo is Projector augmented-wave + core cor, Zval =  4.0
     Generated using &quot;atomic&quot; code by A. Dal Corso  v.6.3
     Shape of augmentation charge: PSQ
     Using radial grid of 1141 points,  6 beta functions with: 
                l(1) =   0
                l(2) =   0
                l(3) =   1
                l(4) =   1
                l(5) =   2
                l(6) =   2
     Q(r) pseudized with 0 coefficients 


     atomic species   valence    mass     pseudopotential
     Si                4.00    28.08550     Si( 1.00)

     48 Sym. Ops., with inversion, found (24 have fractional translation)



   Cartesian axes

     site n.     atom                  positions (alat units)
         1        Si     tau(   1) = (   1.0606602   1.0606602   1.0606602  )
         2        Si     tau(   2) = (   0.7071068   0.7071068   0.7071068  )

     number of k points=    16  Gaussian smearing, width (Ry)=  0.0010
                       cart. coord. in units 2pi/alat
        k(    1) = (   0.0000000   0.0000000   0.0000000), wk =   0.0092593
        k(    2) = (   0.1178511   0.1178511  -0.1178511), wk =   0.0740741
        k(    3) = (   0.2357023   0.2357023  -0.2357023), wk =   0.0740741
        k(    4) = (  -0.3535534  -0.3535534   0.3535534), wk =   0.0370370
        k(    5) = (   0.2357023   0.0000000   0.0000000), wk =   0.0555556
        k(    6) = (   0.3535534   0.1178511  -0.1178511), wk =   0.2222222
        k(    7) = (  -0.2357023  -0.4714045   0.4714045), wk =   0.2222222
        k(    8) = (  -0.1178511  -0.3535534   0.3535534), wk =   0.2222222
        k(    9) = (   0.0000000  -0.2357023   0.2357023), wk =   0.1111111
        k(   10) = (   0.4714045   0.0000000   0.0000000), wk =   0.0555556
        k(   11) = (  -0.1178511  -0.5892557   0.5892557), wk =   0.2222222
        k(   12) = (  -0.0000000  -0.4714045   0.4714045), wk =   0.1111111
        k(   13) = (  -0.7071068   0.0000000   0.0000000), wk =   0.0277778
        k(   14) = (  -0.2357023  -0.4714045   0.7071068), wk =   0.2222222
        k(   15) = (  -0.1178511  -0.3535534   0.5892557), wk =   0.2222222
        k(   16) = (  -0.7071068   0.2357023   0.0000000), wk =   0.1111111

     Dense  grid:     9377 G-vectors     FFT dimensions: (  32,  32,  32)

     Estimated max dynamical RAM per process >       6.78 MB

     Estimated total dynamical RAM >      54.24 MB

     Check: negative core charge=   -0.000003

     Initial potential from superposition of free atoms

     starting charge       7.9989, renormalised to       8.0000
     Starting wfcs are    8 randomized atomic wfcs
     Checking if some PAW data can be deallocated... 

     total cpu time spent up to now is        0.5 secs

     Self-consistent Calculation

     iteration #  1     ecut=    40.00 Ry     beta= 0.70
     Davidson diagonalization with overlap
     ethr =  1.00E-02,  avg # of iterations =  3.6

     Threshold (ethr) on eigenvalues was too large:
     Diagonalizing with lowered threshold

     Davidson diagonalization with overlap
     ethr =  6.35E-04,  avg # of iterations =  2.1

     total cpu time spent up to now is        0.9 secs

     total energy              =     -91.27219774 Ry
     estimated scf accuracy    <       0.05492724 Ry

     iteration #  2     ecut=    40.00 Ry     beta= 0.70
     Davidson diagonalization with overlap
     ethr =  6.87E-04,  avg # of iterations =  1.1

     total cpu time spent up to now is        1.1 secs

     total energy              =     -91.27498741 Ry
     estimated scf accuracy    <       0.00186915 Ry

     iteration #  3     ecut=    40.00 Ry     beta= 0.70
     Davidson diagonalization with overlap
     ethr =  2.34E-05,  avg # of iterations =  4.4

     total cpu time spent up to now is        1.3 secs

     total energy              =     -91.27513468 Ry
     estimated scf accuracy    <       0.00004840 Ry

     iteration #  4     ecut=    40.00 Ry     beta= 0.70
     Davidson diagonalization with overlap
     ethr =  6.05E-07,  avg # of iterations =  3.3

     total cpu time spent up to now is        1.5 secs

     total energy              =     -91.27514762 Ry
     estimated scf accuracy    <       0.00000038 Ry

     iteration #  5     ecut=    40.00 Ry     beta= 0.70
     Davidson diagonalization with overlap
     ethr =  4.73E-09,  avg # of iterations =  3.3

     total cpu time spent up to now is        1.7 secs

     total energy              =     -91.27514799 Ry
     estimated scf accuracy    <       0.00000001 Ry

     iteration #  6     ecut=    40.00 Ry     beta= 0.70
     Davidson diagonalization with overlap
     ethr =  1.66E-10,  avg # of iterations =  2.8

     total cpu time spent up to now is        1.9 secs

     End of self-consistent calculation

          k = 0.0000 0.0000 0.0000 (  1211 PWs)   bands (ev):

    -5.8563   6.0822   6.0822   6.0822   8.5985   8.5985   8.5985   9.3047

          k = 0.1179 0.1179-0.1179 (  1173 PWs)   bands (ev):

    -5.4962   3.6873   5.6302   5.6302   8.3457   9.2456   9.2456  11.4128

          k = 0.2357 0.2357-0.2357 (  1167 PWs)   bands (ev):

    -4.4829   0.7369   5.0816   5.0816   7.7453   9.5333   9.5334  13.7681

          k =-0.3536-0.3536 0.3536 (  1170 PWs)   bands (ev):

    -3.5271  -0.8987   4.8846   4.8846   7.5180   9.3627   9.3627  13.5954

          k = 0.2357 0.0000 0.0000 (  1171 PWs)   bands (ev):

    -5.3737   4.0317   4.8841   4.8841   7.7120  10.2750  10.3793  10.3793

          k = 0.3536 0.1179-0.1179 (  1164 PWs)   bands (ev):

    -4.5607   1.6381   4.0749   4.3322   7.9666  10.0566  10.5283  11.1019

          k =-0.2357-0.4714 0.4714 (  1153 PWs)   bands (ev):

    -3.3698  -0.5302   3.2886   4.3038   8.0349  10.1139  10.6444  12.4064

          k =-0.1179-0.3536 0.3536 (  1166 PWs)   bands (ev):

    -3.7551   0.0694   3.0168   4.7844   8.4480  10.1173  10.2528  13.2526

          k = 0.0000-0.2357 0.2357 (  1175 PWs)   bands (ev):

    -4.9097   2.3565   3.6512   5.5183   9.0472   9.5886   9.8529  11.6326

          k = 0.4714 0.0000 0.0000 (  1174 PWs)   bands (ev):

    -3.9582   1.0706   3.6607   3.6607   6.7161   7.9696  13.2759  13.2759

          k =-0.1179-0.5893 0.5893 (  1155 PWs)   bands (ev):

    -2.7968  -0.4778   2.4302   3.5250   7.0472   8.7091  13.4610  13.4666

          k =-0.0000-0.4714 0.4714 (  1141 PWs)   bands (ev):

    -2.5986  -0.6840   1.6431   3.9679   7.5528  11.7879  12.4897  13.0642

          k =-0.7071 0.0000 0.0000 (  1162 PWs)   bands (ev):

    -1.7251  -1.7251   3.2269   3.2269   6.6905   6.6905  16.0726  16.0727

          k =-0.2357-0.4714 0.7071 (  1173 PWs)   bands (ev):

    -3.5731   0.4395   2.4915   3.7757   8.8571   9.6998  10.2395  13.0743

          k =-0.1179-0.3536 0.5893 (  1164 PWs)   bands (ev):

    -2.5883  -0.7588   2.0501   3.3058   9.3498   9.5582  12.0890  12.5101

          k =-0.7071 0.2357 0.0000 (  1166 PWs)   bands (ev):

    -1.6036  -1.6036   2.4172   2.4172   8.7427   8.7427  12.7559  12.7559

     the Fermi energy is     6.4957 ev

!    total energy              =     -91.27514799 Ry
     total all-electron energy =     -1158.039377 Ry
     estimated scf accuracy    <          5.5E-10 Ry
     smearing contrib. (-TS)   =      -0.00000000 Ry
     internal energy E=F+TS    =     -91.27514799 Ry

     The total energy is F=E-TS. E is the sum of the following terms:
     one-electron contribution =       5.68591974 Ry
     hartree contribution      =       1.09102572 Ry
     xc contribution           =     -12.13051427 Ry
     ewald contribution        =     -16.75352039 Ry
     one-center paw contrib.   =     -69.16805879 Ry

     convergence has been achieved in   6 iterations

     Forces acting on atoms (cartesian axes, Ry/au):

     atom    1 type  1   force =     0.00000000    0.00000000    0.00000000
     atom    2 type  1   force =     0.00000000    0.00000000    0.00000000

     Total force =     0.000000     Total SCF correction =     0.000000


     Computing stress (Cartesian axis) and pressure

          total   stress  (Ry/bohr**3)                   (kbar)     P=       -5.68
  -0.00003858  -0.00000000   0.00000000           -5.68       -0.00        0.00
  -0.00000000  -0.00003858  -0.00000000           -0.00       -5.68       -0.00
   0.00000000  -0.00000000  -0.00003858            0.00       -0.00       -5.68


     BFGS Geometry Optimization
     Energy error            =      0.0E+00 Ry
     Gradient error          =      0.0E+00 Ry/Bohr
     Cell gradient error     =      5.7E+00 kbar

     number of scf cycles    =   1
     number of bfgs steps    =   0

     enthalpy           new  =     -91.2751479894 Ry

     new trust radius        =       0.0031835129 bohr
ibrav =     -5
 celldm(1) =      7.26842773
 celldm(4) =      0.50000000
Input lattice vectors:
     0.00000000     0.70642471     0.70642471
     0.70642471    -0.00000000     0.70642471
     0.70642471     0.70642471    -0.00000000
New lattice vectors in INITIAL alat:
     0.00000000     0.70642471     0.70642471
     0.70642471     0.00000000     0.70642471
     0.70642471     0.70642471     0.00000000
New lattice vectors in NEW alat (for information only):
     0.00000000     0.70710678     0.70710678
     0.70710678     0.00000000     0.70710678
     0.70710678     0.70710678     0.00000000
Discrepancy in bohr =     0.000000    0.000000    0.000000
     new conv_thr            =       0.0000000100 Ry

     new unit-cell volume =    271.52288 a.u.^3 (    40.23554 Ang^3 )
     density =      2.31820 g/cm^3

CELL_PARAMETERS (alat=  7.27544558)
   0.000000000   0.706424710   0.706424710
   0.706424710   0.000000000   0.706424710
   0.706424710   0.706424710   0.000000000

ATOMIC_POSITIONS (crystal)
Si               0.7500000000        0.7500000000        0.7500000000
Si               0.5000000000        0.5000000000        0.5000000000



     Writing config-only to output data dir ./temp/silicon.save/ :
     XML data file
     NEW-OLD atomic charge density approx. for the potential

     Check: negative core charge=   -0.000003

     total cpu time spent up to now is        2.2 secs

     Self-consistent Calculation

     iteration #  1     ecut=    40.00 Ry     beta= 0.70
     Davidson diagonalization with overlap
     ethr =  1.00E-06,  avg # of iterations =  2.0

     Threshold (ethr) on eigenvalues was too large:
     Diagonalizing with lowered threshold

     Davidson diagonalization with overlap
     ethr =  4.92E-09,  avg # of iterations =  3.9

     total cpu time spent up to now is        2.5 secs

     total energy              =     -91.27517125 Ry
     estimated scf accuracy    <       0.00000028 Ry

     iteration #  2     ecut=    40.00 Ry     beta= 0.70
     Davidson diagonalization with overlap
     ethr =  3.49E-09,  avg # of iterations =  1.0

     total cpu time spent up to now is        2.6 secs

     End of self-consistent calculation

          k = 0.0000 0.0000 0.0000 (  1211 PWs)   bands (ev):

    -5.8461   6.1122   6.1122   6.1122   8.6298   8.6298   8.6298   9.3677

          k = 0.1180 0.1180-0.1180 (  1173 PWs)   bands (ev):

    -5.4851   3.7151   5.6590   5.6590   8.3852   9.2785   9.2785  11.4676

          k = 0.2359 0.2359-0.2359 (  1167 PWs)   bands (ev):

    -4.4691   0.7584   5.1094   5.1094   7.7855   9.5641   9.5641  13.8089

          k =-0.3539-0.3539 0.3539 (  1170 PWs)   bands (ev):

    -3.5096  -0.8822   4.9121   4.9121   7.5583   9.3916   9.3916  13.6293

          k = 0.2359-0.0000-0.0000 (  1171 PWs)   bands (ev):

    -5.3624   4.0643   4.9105   4.9105   7.7411  10.3172  10.4156  10.4156

          k = 0.3539 0.1180-0.1180 (  1164 PWs)   bands (ev):

    -4.5472   1.6638   4.1008   4.3574   7.9964  10.0941  10.5626  11.1379

          k =-0.2359-0.4719 0.4719 (  1153 PWs)   bands (ev):

    -3.3524  -0.5111   3.3129   4.3293   8.0653  10.1517  10.6770  12.4446

          k =-0.1180-0.3539 0.3539 (  1166 PWs)   bands (ev):

    -3.7391   0.0905   3.0396   4.8114   8.4818  10.1532  10.2852  13.2964

          k = 0.0000-0.2359 0.2359 (  1175 PWs)   bands (ev):

    -4.8971   2.3841   3.6739   5.5474   9.0862   9.6220   9.8881  11.6743

          k = 0.4719-0.0000-0.0000 (  1174 PWs)   bands (ev):

    -3.9432   1.0982   3.6841   3.6841   6.7420   7.9956  13.3187  13.3187

          k =-0.1180-0.5898 0.5898 (  1155 PWs)   bands (ev):

    -2.7786  -0.4540   2.4492   3.5482   7.0729   8.7386  13.5013  13.5129

          k =-0.0000-0.4719 0.4719 (  1141 PWs)   bands (ev):

    -2.5790  -0.6614   1.6595   3.9924   7.5801  11.8211  12.5297  13.1095

          k =-0.7078 0.0000 0.0000 (  1162 PWs)   bands (ev):

    -1.7044  -1.7044   3.2494   3.2494   6.7149   6.7149  16.1274  16.1274

          k =-0.2359-0.4719 0.7078 (  1173 PWs)   bands (ev):

    -3.5569   0.4649   2.5111   3.7990   8.8885   9.7290  10.2781  13.1159

          k =-0.1180-0.3539 0.5898 (  1164 PWs)   bands (ev):

    -2.5687  -0.7372   2.0689   3.3273   9.3786   9.5940  12.1251  12.5517

          k =-0.7078 0.2359 0.0000 (  1166 PWs)   bands (ev):

    -1.5819  -1.5819   2.4360   2.4360   8.7725   8.7725  12.7968  12.7968

     the Fermi energy is     6.5310 ev

!    total energy              =     -91.27517123 Ry
     total all-electron energy =     -1158.039400 Ry
     estimated scf accuracy    <          8.6E-09 Ry
     smearing contrib. (-TS)   =      -0.00000000 Ry
     internal energy E=F+TS    =     -91.27517123 Ry

     The total energy is F=E-TS. E is the sum of the following terms:
     one-electron contribution =       5.70869286 Ry
     hartree contribution      =       1.08854372 Ry
     xc contribution           =     -12.13416375 Ry
     ewald contribution        =     -16.76969634 Ry
     one-center paw contrib.   =     -69.16854772 Ry

     convergence has been achieved in   2 iterations

     Forces acting on atoms (cartesian axes, Ry/au):

     atom    1 type  1   force =     0.00000000   -0.00000000    0.00000000
     atom    2 type  1   force =    -0.00000000    0.00000000   -0.00000000

     Total force =     0.000000     Total SCF correction =     0.000000


     Computing stress (Cartesian axis) and pressure

          total   stress  (Ry/bohr**3)                   (kbar)     P=       -2.97
  -0.00002019   0.00000000   0.00000000           -2.97        0.00        0.00
   0.00000000  -0.00002019   0.00000000            0.00       -2.97        0.00
   0.00000000   0.00000000  -0.00002019            0.00        0.00       -2.97

     Energy error            =      2.3E-05 Ry
     Gradient error          =      9.3E-32 Ry/Bohr
     Cell gradient error     =      3.0E+00 kbar

     number of scf cycles    =   2
     number of bfgs steps    =   1

     enthalpy           old  =     -91.2751479894 Ry
     enthalpy           new  =     -91.2751712308 Ry

     CASE: enthalpy          _new < enthalpy          _old

     new trust radius        =       0.0034795624 bohr
ibrav =     -5
 celldm(1) =      7.26075355
 celldm(4) =      0.50000000
Input lattice vectors:
     0.00000000     0.70567885     0.70567885
     0.70567885     0.00000000     0.70567885
     0.70567885     0.70567885     0.00000000
New lattice vectors in INITIAL alat:
     0.00000000     0.70567885     0.70567885
     0.70567885     0.00000000     0.70567885
     0.70567885     0.70567885     0.00000000
New lattice vectors in NEW alat (for information only):
     0.00000000     0.70710678     0.70710678
     0.70710678     0.00000000     0.70710678
     0.70710678     0.70710678     0.00000000
Discrepancy in bohr =     0.000000    0.000000    0.000000
     new conv_thr            =            1.0E-10 Ry

     new unit-cell volume =    270.66375 a.u.^3 (    40.10823 Ang^3 )
     density =      2.32556 g/cm^3

CELL_PARAMETERS (alat=  7.27544558)
   0.000000000   0.705678850   0.705678850
   0.705678850   0.000000000   0.705678850
   0.705678850   0.705678850   0.000000000

ATOMIC_POSITIONS (crystal)
Si               0.7500000000        0.7500000000        0.7500000000
Si               0.5000000000        0.5000000000        0.5000000000



     Writing config-only to output data dir ./temp/silicon.save/ :
     XML data file
     NEW-OLD atomic charge density approx. for the potential

     Check: negative core charge=   -0.000003

     total cpu time spent up to now is        2.9 secs

     Self-consistent Calculation

     iteration #  1     ecut=    40.00 Ry     beta= 0.70
     Davidson diagonalization with overlap
     ethr =  1.00E-06,  avg # of iterations =  2.0

     Threshold (ethr) on eigenvalues was too large:
     Diagonalizing with lowered threshold

     Davidson diagonalization with overlap
     ethr =  5.56E-09,  avg # of iterations =  3.9

     total cpu time spent up to now is        3.2 secs

     total energy              =     -91.27518011 Ry
     estimated scf accuracy    <       0.00000031 Ry

     iteration #  2     ecut=    40.00 Ry     beta= 0.70
     Davidson diagonalization with overlap
     ethr =  3.88E-09,  avg # of iterations =  1.0

     total cpu time spent up to now is        3.4 secs

     total energy              =     -91.27518009 Ry
     estimated scf accuracy    <       0.00000001 Ry

     iteration #  3     ecut=    40.00 Ry     beta= 0.70
     Davidson diagonalization with overlap
     ethr =  1.29E-10,  avg # of iterations =  2.3

     total cpu time spent up to now is        3.6 secs

     total energy              =     -91.27518009 Ry
     estimated scf accuracy    <          7.4E-10 Ry

     iteration #  4     ecut=    40.00 Ry     beta= 0.70
     Davidson diagonalization with overlap
     ethr =  9.31E-12,  avg # of iterations =  2.0

     total cpu time spent up to now is        3.7 secs

     total energy              =     -91.27518009 Ry
     estimated scf accuracy    <          3.8E-10 Ry

     iteration #  5     ecut=    40.00 Ry     beta= 0.70
     Davidson diagonalization with overlap
     ethr =  4.72E-12,  avg # of iterations =  1.2

     total cpu time spent up to now is        3.9 secs

     End of self-consistent calculation

          k = 0.0000 0.0000 0.0000 (  1211 PWs)   bands (ev):

    -5.8347   6.1455   6.1455   6.1455   8.6643   8.6643   8.6643   9.4369

          k = 0.1181 0.1181-0.1181 (  1173 PWs)   bands (ev):

    -5.4728   3.7459   5.6909   5.6909   8.4286   9.3148   9.3148  11.5281

          k = 0.2362 0.2362-0.2362 (  1167 PWs)   bands (ev):

    -4.4536   0.7821   5.1401   5.1401   7.8298   9.5979   9.5979  13.8536

          k =-0.3543-0.3543 0.3543 (  1170 PWs)   bands (ev):

    -3.4902  -0.8640   4.9425   4.9425   7.6028   9.4234   9.4234  13.6667

          k = 0.2362-0.0000-0.0000 (  1171 PWs)   bands (ev):

    -5.3497   4.1002   4.9397   4.9397   7.7731  10.3633  10.4556  10.4556

          k = 0.3543 0.1181-0.1181 (  1164 PWs)   bands (ev):

    -4.5322   1.6922   4.1295   4.3852   8.0292  10.1351  10.6008  11.1775

          k =-0.2362-0.4724 0.4724 (  1153 PWs)   bands (ev):

    -3.3330  -0.4900   3.3397   4.3574   8.0988  10.1934  10.7129  12.4868

          k =-0.1181-0.3543 0.3543 (  1166 PWs)   bands (ev):

    -3.7213   0.1138   3.0648   4.8412   8.5190  10.1928  10.3208  13.3448

          k = 0.0000-0.2362 0.2362 (  1175 PWs)   bands (ev):

    -4.8830   2.4145   3.6991   5.5796   9.1290   9.6587   9.9269  11.7203

          k = 0.4724-0.0000-0.0000 (  1174 PWs)   bands (ev):

    -3.9266   1.1286   3.7100   3.7100   6.7708   8.0243  13.3659  13.3659

          k =-0.1181-0.5904 0.5904 (  1155 PWs)   bands (ev):

    -2.7583  -0.4276   2.4703   3.5739   7.1013   8.7711  13.5455  13.5638

          k =-0.0000-0.4724 0.4724 (  1141 PWs)   bands (ev):

    -2.5574  -0.6365   1.6776   4.0195   7.6103  11.8578  12.5736  13.1594

          k =-0.7085 0.0000 0.0000 (  1162 PWs)   bands (ev):

    -1.6815  -1.6815   3.2742   3.2742   6.7420   6.7420  16.1876  16.1876

          k =-0.2362-0.4724 0.7085 (  1173 PWs)   bands (ev):

    -3.5388   0.4931   2.5326   3.8246   8.9232   9.7611  10.3206  13.1618

          k =-0.1181-0.3543 0.5904 (  1164 PWs)   bands (ev):

    -2.5469  -0.7133   2.0898   3.3510   9.4104   9.6335  12.1650  12.5975

          k =-0.7085 0.2362 0.0000 (  1166 PWs)   bands (ev):

    -1.5580  -1.5580   2.4567   2.4567   8.8055   8.8055  12.8418  12.8418

     the Fermi energy is     6.5698 ev

!    total energy              =     -91.27518009 Ry
     total all-electron energy =     -1158.039409 Ry
     estimated scf accuracy    <          1.3E-12 Ry
     smearing contrib. (-TS)   =      -0.00000000 Ry
     internal energy E=F+TS    =     -91.27518009 Ry

     The total energy is F=E-TS. E is the sum of the following terms:
     one-electron contribution =       5.73370227 Ry
     hartree contribution      =       1.08574487 Ry
     xc contribution           =     -12.13812297 Ry
     ewald contribution        =     -16.78742090 Ry
     one-center paw contrib.   =     -69.16908336 Ry

     convergence has been achieved in   5 iterations

     Forces acting on atoms (cartesian axes, Ry/au):

     atom    1 type  1   force =     0.00000000    0.00000000   -0.00000000
     atom    2 type  1   force =    -0.00000000   -0.00000000    0.00000000

     Total force =     0.000000     Total SCF correction =     0.000000


     Computing stress (Cartesian axis) and pressure

          total   stress  (Ry/bohr**3)                   (kbar)     P=       -0.02
  -0.00000017   0.00000000   0.00000000           -0.02        0.00        0.00
   0.00000000  -0.00000017   0.00000000            0.00       -0.02        0.00
   0.00000000   0.00000000  -0.00000017            0.00        0.00       -0.02

     Energy error            =      8.9E-06 Ry
     Gradient error          =      1.7E-32 Ry/Bohr
     Cell gradient error     =      2.5E-02 kbar

     number of scf cycles    =   3
     number of bfgs steps    =   2

     enthalpy           old  =     -91.2751712308 Ry
     enthalpy           new  =     -91.2751800908 Ry

     CASE: enthalpy          _new < enthalpy          _old

     small trust_radius: resetting bfgs history

     new trust radius        =       0.0000137376 bohr
ibrav =     -5
 celldm(1) =      7.26072323
 celldm(4) =      0.50000000
Input lattice vectors:
     0.00000000     0.70567590     0.70567590
     0.70567590     0.00000000     0.70567590
     0.70567590     0.70567590     0.00000000
New lattice vectors in INITIAL alat:
     0.00000000     0.70567590     0.70567590
     0.70567590     0.00000000     0.70567590
     0.70567590     0.70567590     0.00000000
New lattice vectors in NEW alat (for information only):
     0.00000000     0.70710678     0.70710678
     0.70710678     0.00000000     0.70710678
     0.70710678     0.70710678     0.00000000
Discrepancy in bohr =     0.000000    0.000000    0.000000
     new conv_thr            =            1.0E-10 Ry

     new unit-cell volume =    270.66036 a.u.^3 (    40.10773 Ang^3 )
     density =      2.32559 g/cm^3

CELL_PARAMETERS (alat=  7.27544558)
   0.000000000   0.705675904   0.705675904
   0.705675904   0.000000000   0.705675904
   0.705675904   0.705675904   0.000000000

ATOMIC_POSITIONS (crystal)
Si               0.7500000000        0.7500000000        0.7500000000
Si               0.5000000000        0.5000000000        0.5000000000



     Writing config-only to output data dir ./temp/silicon.save/ :
     XML data file
     NEW-OLD atomic charge density approx. for the potential

     Check: negative core charge=   -0.000003

     total cpu time spent up to now is        4.2 secs

     Self-consistent Calculation

     iteration #  1     ecut=    40.00 Ry     beta= 0.70
     Davidson diagonalization with overlap
     ethr =  1.00E-06,  avg # of iterations =  1.0

     Threshold (ethr) on eigenvalues was too large:
     Diagonalizing with lowered threshold

     Davidson diagonalization with overlap
     ethr =  7.33E-14,  avg # of iterations =  4.2

     total cpu time spent up to now is        4.5 secs

     End of self-consistent calculation

          k = 0.0000 0.0000 0.0000 (  1211 PWs)   bands (ev):

    -5.8347   6.1456   6.1456   6.1456   8.6644   8.6644   8.6644   9.4372

          k = 0.1181 0.1181-0.1181 (  1173 PWs)   bands (ev):

    -5.4727   3.7460   5.6910   5.6910   8.4288   9.3149   9.3149  11.5284

          k = 0.2362 0.2362-0.2362 (  1167 PWs)   bands (ev):

    -4.4536   0.7822   5.1402   5.1402   7.8300   9.5980   9.5980  13.8538

          k =-0.3543-0.3543 0.3543 (  1170 PWs)   bands (ev):

    -3.4901  -0.8639   4.9426   4.9426   7.6030   9.4235   9.4235  13.6669

          k = 0.2362-0.0000-0.0000 (  1171 PWs)   bands (ev):

    -5.3496   4.1004   4.9398   4.9398   7.7732  10.3635  10.4558  10.4558

          k = 0.3543 0.1181-0.1181 (  1164 PWs)   bands (ev):

    -4.5322   1.6924   4.1296   4.3853   8.0293  10.1353  10.6010  11.1777

          k =-0.2362-0.4724 0.4724 (  1153 PWs)   bands (ev):

    -3.3329  -0.4899   3.3398   4.3575   8.0990  10.1936  10.7131  12.4870

          k =-0.1181-0.3543 0.3543 (  1166 PWs)   bands (ev):

    -3.7212   0.1139   3.0649   4.8413   8.5191  10.1930  10.3210  13.3449

          k = 0.0000-0.2362 0.2362 (  1175 PWs)   bands (ev):

    -4.8830   2.4146   3.6992   5.5797   9.1292   9.6589   9.9271  11.7205

          k = 0.4724-0.0000-0.0000 (  1174 PWs)   bands (ev):

    -3.9266   1.1288   3.7101   3.7101   6.7709   8.0244  13.3660  13.3660

          k =-0.1181-0.5905 0.5905 (  1155 PWs)   bands (ev):

    -2.7583  -0.4275   2.4704   3.5740   7.1014   8.7712  13.5457  13.5640

          k =-0.0000-0.4724 0.4724 (  1141 PWs)   bands (ev):

    -2.5573  -0.6364   1.6777   4.0196   7.6104  11.8579  12.5738  13.1596

          k =-0.7085 0.0000 0.0000 (  1162 PWs)   bands (ev):

    -1.6814  -1.6814   3.2743   3.2743   6.7421   6.7421  16.1879  16.1879

          k =-0.2362-0.4724 0.7085 (  1173 PWs)   bands (ev):

    -3.5388   0.4932   2.5327   3.8247   8.9233   9.7612  10.3208  13.1619

          k =-0.1181-0.3543 0.5905 (  1164 PWs)   bands (ev):

    -2.5468  -0.7132   2.0898   3.3511   9.4106   9.6336  12.1651  12.5977

          k =-0.7085 0.2362-0.0000 (  1166 PWs)   bands (ev):

    -1.5579  -1.5579   2.4568   2.4568   8.8056   8.8056  12.8419  12.8419

     the Fermi energy is     6.5700 ev

!    total energy              =     -91.27518009 Ry
     total all-electron energy =     -1158.039409 Ry
     estimated scf accuracy    <          2.9E-12 Ry
     smearing contrib. (-TS)   =      -0.00000000 Ry
     internal energy E=F+TS    =     -91.27518009 Ry

     The total energy is F=E-TS. E is the sum of the following terms:
     one-electron contribution =       5.73380070 Ry
     hartree contribution      =       1.08573352 Ry
     xc contribution           =     -12.13813847 Ry
     ewald contribution        =     -16.78749099 Ry
     one-center paw contrib.   =     -69.16908486 Ry

     convergence has been achieved in   1 iterations

     Forces acting on atoms (cartesian axes, Ry/au):

     atom    1 type  1   force =     0.00000000    0.00000000    0.00000000
     atom    2 type  1   force =     0.00000000    0.00000000    0.00000000

     Total force =     0.000000     Total SCF correction =     0.000000


     Computing stress (Cartesian axis) and pressure

          total   stress  (Ry/bohr**3)                   (kbar)     P=       -0.01
  -0.00000009   0.00000000   0.00000000           -0.01        0.00        0.00
  -0.00000000  -0.00000009   0.00000000           -0.00       -0.01        0.00
   0.00000000   0.00000000  -0.00000009            0.00        0.00       -0.01

     Energy error            =      4.3E-10 Ry
     Gradient error          =      0.0E+00 Ry/Bohr
     Cell gradient error     =      1.3E-02 kbar
ibrav =     -5
 celldm(1) =      7.26072323
 celldm(4) =      0.50000000
Input lattice vectors:
     0.00000000     0.70567590     0.70567590
     0.70567590     0.00000000     0.70567590
     0.70567590     0.70567590     0.00000000
New lattice vectors in INITIAL alat:
     0.00000000     0.70567590     0.70567590
     0.70567590     0.00000000     0.70567590
     0.70567590     0.70567590     0.00000000
New lattice vectors in NEW alat (for information only):
     0.00000000     0.70710678     0.70710678
     0.70710678     0.00000000     0.70710678
     0.70710678     0.70710678     0.00000000
Discrepancy in bohr =     0.000000    0.000000    0.000000

     bfgs converged in   4 scf cycles and   3 bfgs steps
     (criteria: energy <  1.0E-06 Ry, force <  1.0E-05 Ry/Bohr, cell <  5.0E-01 kbar)

     End of BFGS Geometry Optimization

     Final enthalpy           =     -91.2751800912 Ry

     File ./temp/silicon.bfgs deleted, as requested
Begin final coordinates
     new unit-cell volume =    270.66036 a.u.^3 (    40.10773 Ang^3 )
     density =      2.32559 g/cm^3

CELL_PARAMETERS (alat=  7.27544558)
   0.000000000   0.705675904   0.705675904
   0.705675904   0.000000000   0.705675904
   0.705675904   0.705675904   0.000000000

ATOMIC_POSITIONS (crystal)
Si               0.7500000000        0.7500000000        0.7500000000
Si               0.5000000000        0.5000000000        0.5000000000
End final coordinates



     Writing config-only to output data dir ./temp/silicon.save/ :
     XML data file

     Final scf calculation at the relaxed structure.
     The G-vectors are recalculated for the final unit cell
     Results may differ from those at the preceding step.

     Parallelization info
     --------------------
     sticks:   dense  smooth     PW     G-vecs:    dense   smooth      PW
     Min          72      72     23                 1161     1161     204
     Max          73      73     24                 1164     1164     206
     Sum         583     583    187                 9305     9305    1639

     Using Slab Decomposition



     bravais-lattice index     =           -5
     lattice parameter (alat)  =       7.2754  a.u.
     unit-cell volume          =     270.6604 (a.u.)^3
     number of atoms/cell      =            2
     number of atomic types    =            1
     number of electrons       =         8.00
     number of Kohn-Sham states=            8
     kinetic-energy cutoff     =      40.0000  Ry
     charge density cutoff     =     160.0000  Ry
     scf convergence threshold =      1.0E-10
     mixing beta               =       0.7000
     number of iterations used =            8  plain     mixing
     press convergence thresh. =      5.0E-01
     Exchange-correlation= SLA  PW   PSX  PSC
                           (   1   4  10   8   0   0   0)

     celldm(1)=   7.275446  celldm(2)=   0.000000  celldm(3)=   0.000000
     celldm(4)=   0.500000  celldm(5)=   0.000000  celldm(6)=   0.000000

     crystal axes: (cart. coord. in units of alat)
               a(1) = (   0.000000   0.705676   0.705676 )  
               a(2) = (   0.705676   0.000000   0.705676 )  
               a(3) = (   0.705676   0.705676   0.000000 )  

     reciprocal axes: (cart. coord. in units 2 pi/alat)
               b(1) = ( -0.708541  0.708541  0.708541 )  
               b(2) = (  0.708541 -0.708541  0.708541 )  
               b(3) = (  0.708541  0.708541 -0.708541 )  


     PseudoPot. # 1 for Si read from file:
     ./../../pseudos/Si.pbesol-n-kjpaw_psl.1.0.0.UPF
     MD5 check sum: 9fbd692c527d147d9ad0870b71777ff4
     Pseudo is Projector augmented-wave + core cor, Zval =  4.0
     Generated using &quot;atomic&quot; code by A. Dal Corso  v.6.3
     Shape of augmentation charge: PSQ
     Using radial grid of 1141 points,  6 beta functions with: 
                l(1) =   0
                l(2) =   0
                l(3) =   1
                l(4) =   1
                l(5) =   2
                l(6) =   2
     Q(r) pseudized with 0 coefficients 


     atomic species   valence    mass     pseudopotential
     Si                4.00    28.08550     Si( 1.00)

     48 Sym. Ops., with inversion, found (24 have fractional translation)



   Cartesian axes

     site n.     atom                  positions (alat units)
         1        Si     tau(   1) = (   1.0585139   1.0585139   1.0585139  )
         2        Si     tau(   2) = (   0.7056759   0.7056759   0.7056759  )

     number of k points=    16  Gaussian smearing, width (Ry)=  0.0010
                       cart. coord. in units 2pi/alat
        k(    1) = (   0.0000000   0.0000000   0.0000000), wk =   0.0092593
        k(    2) = (   0.1180901   0.1180901  -0.1180901), wk =   0.0740741
        k(    3) = (   0.2361802   0.2361802  -0.2361802), wk =   0.0740741
        k(    4) = (  -0.3542703  -0.3542703   0.3542703), wk =   0.0370370
        k(    5) = (   0.2361802  -0.0000000  -0.0000000), wk =   0.0555556
        k(    6) = (   0.3542703   0.1180901  -0.1180901), wk =   0.2222222
        k(    7) = (  -0.2361802  -0.4723604   0.4723604), wk =   0.2222222
        k(    8) = (  -0.1180901  -0.3542703   0.3542703), wk =   0.2222222
        k(    9) = (   0.0000000  -0.2361802   0.2361802), wk =   0.1111111
        k(   10) = (   0.4723604  -0.0000000  -0.0000000), wk =   0.0555556
        k(   11) = (  -0.1180901  -0.5904505   0.5904505), wk =   0.2222222
        k(   12) = (  -0.0000000  -0.4723604   0.4723604), wk =   0.1111111
        k(   13) = (  -0.7085406   0.0000000   0.0000000), wk =   0.0277778
        k(   14) = (  -0.2361802  -0.4723604   0.7085406), wk =   0.2222222
        k(   15) = (  -0.1180901  -0.3542703   0.5904505), wk =   0.2222222
        k(   16) = (  -0.7085406   0.2361802  -0.0000000), wk =   0.1111111

     Dense  grid:     9305 G-vectors     FFT dimensions: (  32,  32,  32)

     Estimated max dynamical RAM per process >       6.75 MB

     Estimated total dynamical RAM >      54.04 MB

     Check: negative core charge=   -0.000003

     Initial potential from superposition of free atoms

     starting charge       7.9989, renormalised to       8.0000
     Starting wfcs are    8 randomized atomic wfcs
     Checking if some PAW data can be deallocated... 

     total cpu time spent up to now is        4.9 secs

     Self-consistent Calculation

     iteration #  1     ecut=    40.00 Ry     beta= 0.70
     Davidson diagonalization with overlap
     c_bands:  1 eigenvalues not converged
     c_bands:  2 eigenvalues not converged
     ethr =  1.00E-06,  avg # of iterations = 15.4

     total cpu time spent up to now is        5.4 secs

     total energy              =     -91.27218327 Ry
     estimated scf accuracy    <       0.05647841 Ry

     iteration #  2     ecut=    40.00 Ry     beta= 0.70
     Davidson diagonalization with overlap
     ethr =  7.06E-04,  avg # of iterations =  1.0

     total cpu time spent up to now is        5.6 secs

     total energy              =     -91.27502705 Ry
     estimated scf accuracy    <       0.00178033 Ry

     iteration #  3     ecut=    40.00 Ry     beta= 0.70
     Davidson diagonalization with overlap
     ethr =  2.23E-05,  avg # of iterations =  1.9

     total cpu time spent up to now is        5.8 secs

     total energy              =     -91.27516308 Ry
     estimated scf accuracy    <       0.00004081 Ry

     iteration #  4     ecut=    40.00 Ry     beta= 0.70
     Davidson diagonalization with overlap
     ethr =  5.10E-07,  avg # of iterations =  2.7

     total cpu time spent up to now is        6.0 secs

     total energy              =     -91.27517734 Ry
     estimated scf accuracy    <       0.00000156 Ry

     iteration #  5     ecut=    40.00 Ry     beta= 0.70
     Davidson diagonalization with overlap
     ethr =  1.95E-08,  avg # of iterations =  2.2

     total cpu time spent up to now is        6.2 secs

     total energy              =     -91.27517778 Ry
     estimated scf accuracy    <       0.00000022 Ry

     iteration #  6     ecut=    40.00 Ry     beta= 0.70
     Davidson diagonalization with overlap
     ethr =  2.71E-09,  avg # of iterations =  1.9

     total cpu time spent up to now is        6.4 secs

     total energy              =     -91.27517782 Ry
     estimated scf accuracy    <          1.9E-09 Ry

     iteration #  7     ecut=    40.00 Ry     beta= 0.70
     Davidson diagonalization with overlap
     ethr =  2.38E-11,  avg # of iterations =  3.9

     total cpu time spent up to now is        6.6 secs

     total energy              =     -91.27517782 Ry
     estimated scf accuracy    <          7.5E-10 Ry

     iteration #  8     ecut=    40.00 Ry     beta= 0.70
     Davidson diagonalization with overlap
     ethr =  9.40E-12,  avg # of iterations =  1.5

     total cpu time spent up to now is        6.8 secs

     End of self-consistent calculation

          k = 0.0000 0.0000 0.0000 (  1139 PWs)   bands (ev):

    -5.8346   6.1456   6.1456   6.1456   8.6644   8.6644   8.6644   9.4373

          k = 0.1181 0.1181-0.1181 (  1173 PWs)   bands (ev):

    -5.4727   3.7460   5.6910   5.6910   8.4288   9.3149   9.3149  11.5284

          k = 0.2362 0.2362-0.2362 (  1149 PWs)   bands (ev):

    -4.4535   0.7822   5.1403   5.1403   7.8300   9.5980   9.5980  13.8536

          k =-0.3543-0.3543 0.3543 (  1170 PWs)   bands (ev):

    -3.4901  -0.8639   4.9426   4.9426   7.6030   9.4235   9.4235  13.6669

          k = 0.2362-0.0000-0.0000 (  1171 PWs)   bands (ev):

    -5.3496   4.1004   4.9398   4.9398   7.7732  10.3635  10.4558  10.4558

          k = 0.3543 0.1181-0.1181 (  1151 PWs)   bands (ev):

    -4.5321   1.6924   4.1297   4.3853   8.0293  10.1353  10.6010  11.1777

          k =-0.2362-0.4724 0.4724 (  1153 PWs)   bands (ev):

    -3.3329  -0.4899   3.3398   4.3575   8.0990  10.1936  10.7131  12.4870

          k =-0.1181-0.3543 0.3543 (  1156 PWs)   bands (ev):

    -3.7212   0.1139   3.0649   4.8413   8.5191  10.1930  10.3210  13.3448

          k = 0.0000-0.2362 0.2362 (  1147 PWs)   bands (ev):

    -4.8830   2.4147   3.6992   5.5797   9.1292   9.6589   9.9271  11.7205

          k = 0.4724-0.0000-0.0000 (  1150 PWs)   bands (ev):

    -3.9265   1.1288   3.7102   3.7102   6.7709   8.0244  13.3661  13.3661

          k =-0.1181-0.5905 0.5905 (  1155 PWs)   bands (ev):

    -2.7583  -0.4275   2.4704   3.5740   7.1014   8.7712  13.5457  13.5640

          k =-0.0000-0.4724 0.4724 (  1141 PWs)   bands (ev):

    -2.5573  -0.6364   1.6777   4.0196   7.6105  11.8579  12.5738  13.1597

          k =-0.7085 0.0000 0.0000 (  1162 PWs)   bands (ev):

    -1.6814  -1.6814   3.2743   3.2743   6.7421   6.7421  16.1879  16.1879

          k =-0.2362-0.4724 0.7085 (  1151 PWs)   bands (ev):

    -3.5388   0.4932   2.5327   3.8248   8.9234   9.7613  10.3208  13.1620

          k =-0.1181-0.3543 0.5905 (  1152 PWs)   bands (ev):

    -2.5468  -0.7132   2.0898   3.3511   9.4106   9.6336  12.1651  12.5977

          k =-0.7085 0.2362-0.0000 (  1166 PWs)   bands (ev):

    -1.5579  -1.5579   2.4568   2.4568   8.8056   8.8056  12.8419  12.8419

     the Fermi energy is     6.5700 ev

!    total energy              =     -91.27517782 Ry
     total all-electron energy =     -1158.039407 Ry
     estimated scf accuracy    <          3.6E-11 Ry
     smearing contrib. (-TS)   =      -0.00000000 Ry
     internal energy E=F+TS    =     -91.27517782 Ry

     The total energy is F=E-TS. E is the sum of the following terms:
     one-electron contribution =       5.73380437 Ry
     hartree contribution      =       1.08573182 Ry
     xc contribution           =     -12.13813738 Ry
     ewald contribution        =     -16.78749099 Ry
     one-center paw contrib.   =     -69.16908565 Ry

     convergence has been achieved in   8 iterations

     Forces acting on atoms (cartesian axes, Ry/au):

     atom    1 type  1   force =    -0.00000000   -0.00000000   -0.00000000
     atom    2 type  1   force =    -0.00000000   -0.00000000   -0.00000000

     Total force =     0.000000     Total SCF correction =     0.000000


     Computing stress (Cartesian axis) and pressure

          total   stress  (Ry/bohr**3)                   (kbar)     P=       -0.01
  -0.00000008  -0.00000000   0.00000000           -0.01       -0.00        0.00
   0.00000000  -0.00000008  -0.00000000            0.00       -0.01       -0.00
  -0.00000000  -0.00000000  -0.00000008           -0.00       -0.00       -0.01


     Writing all to output data dir ./temp/silicon.save/ :
     XML data file, charge density, pseudopotentials, collected wavefunctions

     init_run     :      0.41s CPU      0.52s WALL (       2 calls)
     electrons    :      4.02s CPU      4.91s WALL (       5 calls)
     update_pot   :      0.22s CPU      0.25s WALL (       3 calls)
     forces       :      0.14s CPU      0.17s WALL (       5 calls)
     stress       :      0.47s CPU      0.55s WALL (       5 calls)

     Called by init_run:
     wfcinit      :      0.06s CPU      0.07s WALL (       2 calls)
     potinit      :      0.15s CPU      0.18s WALL (       2 calls)
     hinit0       :      0.17s CPU      0.20s WALL (       2 calls)

     Called by electrons:
     c_bands      :      1.92s CPU      2.32s WALL (      26 calls)
     sum_band     :      0.45s CPU      0.52s WALL (      26 calls)
     v_of_rho     :      0.06s CPU      0.07s WALL (      27 calls)
     newd         :      0.19s CPU      0.23s WALL (      27 calls)
     PAW_pot      :      1.95s CPU      2.31s WALL (      30 calls)
     mix_rho      :      0.01s CPU      0.01s WALL (      26 calls)

     Called by c_bands:
     init_us_2    :      0.06s CPU      0.07s WALL (    1072 calls)
     cegterg      :      1.78s CPU      2.14s WALL (     416 calls)

     Called by *egterg:
     cdiaghg      :      0.16s CPU      0.19s WALL (    1515 calls)
     h_psi        :      1.18s CPU      1.43s WALL (    1659 calls)
     s_psi        :      0.13s CPU      0.14s WALL (    1659 calls)
     g_psi        :      0.01s CPU      0.01s WALL (    1211 calls)

     Called by h_psi:
     h_psi:calbec :      0.19s CPU      0.22s WALL (    1659 calls)
     vloc_psi     :      0.85s CPU      1.05s WALL (    1659 calls)
     add_vuspsi   :      0.13s CPU      0.14s WALL (    1659 calls)

     General routines
     calbec       :      0.32s CPU      0.39s WALL (    2523 calls)
     fft          :      0.11s CPU      0.13s WALL (     429 calls)
     ffts         :      0.00s CPU      0.00s WALL (      26 calls)
     fftw         :      0.84s CPU      1.03s WALL (   22842 calls)

     Parallel routines

     PWSCF        :      5.77s CPU      7.03s WALL


   This run was terminated on:  19:59:10  21Dec2024            

=------------------------------------------------------------------------------=
   JOB DONE.
=------------------------------------------------------------------------------=
