
     Program PWSCF v.7.3.1 starts on 31Jan2025 at 19:22:56 

     This program is part of the open-source Quantum ESPRESSO suite
     for quantum simulation of materials; please cite
         "P. Giannozzi et al., J. Phys.:Condens. Matter 21 395502 (2009);
         "P. Giannozzi et al., J. Phys.:Condens. Matter 29 465901 (2017);
         "P. Giannozzi et al., J. Chem. Phys. 152 154105 (2020);
          URL http://www.quantum-espresso.org", 
     in publications or presentations arising from this work. More details at
     http://www.quantum-espresso.org/quote

     Parallel version (MPI), running on     6 processors

     MPI processes distributed on     1 nodes
     2049 MiB available memory on the printing compute node when the environment starts

     Reading input from relax.in

     Current dimensions of program PWSCF are:
     Max number of different atomic species (ntypx) = 10
     Max number of k-points (npk) =  40000
     Max angular momentum in pseudopotentials (lmaxx) =  4
     file Mn.pbe-spn-kjpaw_psl.0.3.1.UPF: wavefunction(s)  3P 3D renormalized
     file Mn.pbe-spn-kjpaw_psl.0.3.1.UPF: wavefunction(s)  3P 3D renormalized
     file Mn.pbe-spn-kjpaw_psl.0.3.1.UPF: wavefunction(s)  3P 3D renormalized
     file Mn.pbe-spn-kjpaw_psl.0.3.1.UPF: wavefunction(s)  3P 3D renormalized
     file S.pbe-n-kjpaw_psl.1.0.0.UPF: wavefunction(s)  3S 3P renormalized

     R & G space division:  proc/nbgrp/npool/nimage =       6
     Subspace diagonalization in iterative solution of the eigenvalue problem:
     a serial algorithm will be used


     Parallelization info
     --------------------
     sticks:   dense  smooth     PW     G-vecs:    dense   smooth      PW
     Min         374     300     92                 5900     4227     706
     Max         375     301     93                 5902     4229     707
     Sum        2245    1801    555                35405    25365    4237

     Using Slab Decomposition



     bravais-lattice index     =            0
     lattice parameter (alat)  =      14.7866  a.u.
     unit-cell volume          =    1143.0296 (a.u.)^3
     number of atoms/cell      =            8
     number of atomic types    =            5
     number of electrons       =        84.00
     number of Kohn-Sham states=           50
     kinetic-energy cutoff     =      30.0000  Ry
     charge density cutoff     =     150.0000  Ry
     scf convergence threshold =      1.0E-10
     mixing beta               =       0.7000
     number of iterations used =            8  plain     mixing
     energy convergence thresh.=      1.0E-05
     force convergence thresh. =      1.0E-04
     Exchange-correlation= SLA  PW   PBX  PBC
                           (   1   4   3   4   0   0   0)
     nstep                     =           50


     celldm(1)=  14.786571  celldm(2)=   0.000000  celldm(3)=   0.000000
     celldm(4)=   0.000000  celldm(5)=   0.000000  celldm(6)=   0.000000

     crystal axes: (cart. coord. in units of alat)
               a(1) = (   1.000000   0.000000   0.000000 )  
               a(2) = (   0.500000   0.866025   0.000000 )  
               a(3) = (   0.250000   0.144338   0.408248 )  

     reciprocal axes: (cart. coord. in units 2 pi/alat)
               b(1) = (  1.000000 -0.577350 -0.408248 )  
               b(2) = (  0.000000  1.154700 -0.408248 )  
               b(3) = (  0.000000  0.000000  2.449490 )  


     PseudoPot. # 1 for Mn read from file:
     ./../../../pseudos/Mn.pbe-spn-kjpaw_psl.0.3.1.UPF
     MD5 check sum: ba19e6d7ccbc12830efad05ba8577d9c
     Pseudo is Projector augmented-wave + core cor, Zval = 15.0
     Generated using &quot;atomic&quot; code by A. Dal Corso  v.6.2.2
     Shape of augmentation charge: PSQ
     Using radial grid of 1187 points,  6 beta functions with: 
                l(1) =   0
                l(2) =   0
                l(3) =   1
                l(4) =   1
                l(5) =   2
                l(6) =   2
     Q(r) pseudized with 0 coefficients 


     PseudoPot. # 2 for Mn read from file:
     ./../../../pseudos/Mn.pbe-spn-kjpaw_psl.0.3.1.UPF
     MD5 check sum: ba19e6d7ccbc12830efad05ba8577d9c
     Pseudo is Projector augmented-wave + core cor, Zval = 15.0
     Generated using &quot;atomic&quot; code by A. Dal Corso  v.6.2.2
     Shape of augmentation charge: PSQ
     Using radial grid of 1187 points,  6 beta functions with: 
                l(1) =   0
                l(2) =   0
                l(3) =   1
                l(4) =   1
                l(5) =   2
                l(6) =   2
     Q(r) pseudized with 0 coefficients 


     PseudoPot. # 3 for Mn read from file:
     ./../../../pseudos/Mn.pbe-spn-kjpaw_psl.0.3.1.UPF
     MD5 check sum: ba19e6d7ccbc12830efad05ba8577d9c
     Pseudo is Projector augmented-wave + core cor, Zval = 15.0
     Generated using &quot;atomic&quot; code by A. Dal Corso  v.6.2.2
     Shape of augmentation charge: PSQ
     Using radial grid of 1187 points,  6 beta functions with: 
                l(1) =   0
                l(2) =   0
                l(3) =   1
                l(4) =   1
                l(5) =   2
                l(6) =   2
     Q(r) pseudized with 0 coefficients 


     PseudoPot. # 4 for Mn read from file:
     ./../../../pseudos/Mn.pbe-spn-kjpaw_psl.0.3.1.UPF
     MD5 check sum: ba19e6d7ccbc12830efad05ba8577d9c
     Pseudo is Projector augmented-wave + core cor, Zval = 15.0
     Generated using &quot;atomic&quot; code by A. Dal Corso  v.6.2.2
     Shape of augmentation charge: PSQ
     Using radial grid of 1187 points,  6 beta functions with: 
                l(1) =   0
                l(2) =   0
                l(3) =   1
                l(4) =   1
                l(5) =   2
                l(6) =   2
     Q(r) pseudized with 0 coefficients 


     PseudoPot. # 5 for S  read from file:
     ./../../../pseudos/S.pbe-n-kjpaw_psl.1.0.0.UPF
     MD5 check sum: fb45dfebcf3e72a4e1bd4a866ec2e262
     Pseudo is Projector augmented-wave + core cor, Zval =  6.0
     Generated using &quot;atomic&quot; code by A. Dal Corso  v.6.3
     Shape of augmentation charge: PSQ
     Using radial grid of 1151 points,  6 beta functions with: 
                l(1) =   0
                l(2) =   0
                l(3) =   1
                l(4) =   1
                l(5) =   2
                l(6) =   2
     Q(r) pseudized with 0 coefficients 


     atomic species   valence    mass     pseudopotential
     Mn1              15.00    54.93800     Mn( 1.00)
     Mn2              15.00    54.93800     Mn( 1.00)
     Mn3              15.00    54.93800     Mn( 1.00)
     Mn4              15.00    54.93800     Mn( 1.00)
     S                 6.00    32.06500     S ( 1.00)

     No symmetry found


                                    s                        frac. trans.

      isym =  1     identity                                     

 cryst.   s( 1) = (     1          0          0      )
                  (     0          1          0      )
                  (     0          0          1      )

 cart.    s( 1) = (  1.0000000  0.0000000  0.0000000 )
                  (  0.0000000  1.0000000  0.0000000 )
                  (  0.0000000  0.0000000  1.0000000 )


   Cartesian axes

     site n.     atom                  positions (alat units)
         1        Mn1    tau(   1) = (   0.7500000   0.4330127   0.3061862  )
         2        Mn2    tau(   2) = (   0.9999999   0.8660254   0.3061862  )
         3        Mn3    tau(   3) = (   1.2500000   0.4330127   0.3061862  )
         4        Mn4    tau(   4) = (   1.4999999   0.8660254   0.3061862  )
         5        S      tau(   5) = (   0.0000000   0.0000000   0.0000000  )
         6        S      tau(   6) = (   0.2500000   0.4330127   0.0000000  )
         7        S      tau(   7) = (   0.5000000   0.0000000   0.0000000  )
         8        S      tau(   8) = (   0.7500000   0.4330127   0.0000000  )

   Crystallographic axes

     site n.     atom                  positions (cryst. coord.)
         1        Mn1    tau(   1) = (  0.3750000  0.3750000  0.7500000  )
         2        Mn2    tau(   2) = (  0.3750000  0.8750000  0.7500000  )
         3        Mn3    tau(   3) = (  0.8750000  0.3750000  0.7500000  )
         4        Mn4    tau(   4) = (  0.8750000  0.8750000  0.7500000  )
         5        S      tau(   5) = (  0.0000000  0.0000000  0.0000000  )
         6        S      tau(   6) = (  0.0000000  0.5000000  0.0000000  )
         7        S      tau(   7) = (  0.5000000  0.0000000  0.0000000  )
         8        S      tau(   8) = (  0.5000000  0.5000000  0.0000000  )

     number of k points=    23  Gaussian smearing, width (Ry)=  0.0100
                       cart. coord. in units 2pi/alat
        k(    1) = (   0.0000000   0.0000000   0.0000000), wk =   0.0444444
        k(    2) = (   0.0000000   0.0000000   0.4898979), wk =   0.0888889
        k(    3) = (   0.0000000   0.0000000   0.9797958), wk =   0.0888889
        k(    4) = (   0.0000000   0.3849002  -0.1360827), wk =   0.0888889
        k(    5) = (   0.0000000   0.3849002   0.3538152), wk =   0.0888889
        k(    6) = (   0.0000000   0.3849002   0.8437131), wk =   0.0888889
        k(    7) = (   0.0000000   0.3849002  -1.1158786), wk =   0.0888889
        k(    8) = (   0.0000000   0.3849002  -0.6259807), wk =   0.0888889
        k(    9) = (   0.3333333   0.1924501  -0.2721655), wk =   0.0888889
        k(   10) = (   0.3333333   0.1924501   0.2177324), wk =   0.0888889
        k(   11) = (   0.3333333   0.1924501   0.7076304), wk =   0.0888889
        k(   12) = (   0.3333333   0.1924501  -1.2519613), wk =   0.0888889
        k(   13) = (   0.3333333   0.1924501  -0.7620634), wk =   0.0888889
        k(   14) = (   0.3333333  -0.5773502   0.0000000), wk =   0.0888889
        k(   15) = (   0.3333333  -0.5773502   0.4898979), wk =   0.0888889
        k(   16) = (   0.3333333  -0.5773502   0.9797959), wk =   0.0888889
        k(   17) = (  -0.3333333   0.1924501   0.1360827), wk =   0.0888889
        k(   18) = (  -0.3333333   0.1924501  -0.3538152), wk =   0.0888889
        k(   19) = (  -0.3333333   0.1924501  -0.8437131), wk =   0.0888889
        k(   20) = (  -0.3333333   0.1924501   1.1158786), wk =   0.0888889
        k(   21) = (  -0.3333333   0.1924501   0.6259807), wk =   0.0888889
        k(   22) = (   0.3333333  -0.5773502  -0.4898979), wk =   0.0888889
        k(   23) = (   0.3333333  -0.5773502  -0.9797958), wk =   0.0888889

                       cryst. coord.
        k(    1) = (   0.0000000   0.0000000   0.0000000), wk =   0.0444444
        k(    2) = (   0.0000000   0.0000000   0.2000000), wk =   0.0888889
        k(    3) = (   0.0000000   0.0000000   0.4000000), wk =   0.0888889
        k(    4) = (   0.0000000   0.3333333   0.0000000), wk =   0.0888889
        k(    5) = (   0.0000000   0.3333333   0.2000000), wk =   0.0888889
        k(    6) = (   0.0000000   0.3333333   0.4000000), wk =   0.0888889
        k(    7) = (   0.0000000   0.3333333  -0.4000000), wk =   0.0888889
        k(    8) = (   0.0000000   0.3333333  -0.2000000), wk =   0.0888889
        k(    9) = (   0.3333333   0.3333333   0.0000000), wk =   0.0888889
        k(   10) = (   0.3333333   0.3333333   0.2000000), wk =   0.0888889
        k(   11) = (   0.3333333   0.3333333   0.4000000), wk =   0.0888889
        k(   12) = (   0.3333333   0.3333333  -0.4000000), wk =   0.0888889
        k(   13) = (   0.3333333   0.3333333  -0.2000000), wk =   0.0888889
        k(   14) = (   0.3333333  -0.3333333   0.0000000), wk =   0.0888889
        k(   15) = (   0.3333333  -0.3333333   0.2000000), wk =   0.0888889
        k(   16) = (   0.3333333  -0.3333333   0.4000000), wk =   0.0888889
        k(   17) = (  -0.3333333   0.0000000  -0.0000000), wk =   0.0888889
        k(   18) = (  -0.3333333   0.0000000  -0.2000000), wk =   0.0888889
        k(   19) = (  -0.3333333   0.0000000  -0.4000000), wk =   0.0888889
        k(   20) = (  -0.3333333   0.0000000   0.4000000), wk =   0.0888889
        k(   21) = (  -0.3333333   0.0000000   0.2000000), wk =   0.0888889
        k(   22) = (   0.3333333  -0.3333333  -0.2000000), wk =   0.0888889
        k(   23) = (   0.3333333  -0.3333333  -0.4000000), wk =   0.0888889

     Dense  grid:    35405 G-vectors     FFT dimensions: (  60,  60,  30)

     Smooth grid:    25365 G-vectors     FFT dimensions: (  54,  54,  25)

     Dynamical RAM for                 wfc:       0.40 MB

     Dynamical RAM for     wfc (w. buffer):       9.67 MB

     Dynamical RAM for           str. fact:       0.45 MB

     Dynamical RAM for           local pot:       0.00 MB

     Dynamical RAM for          nlocal pot:       1.16 MB

     Dynamical RAM for                qrad:       4.92 MB

     Dynamical RAM for          rho,v,vnew:       0.68 MB

     Dynamical RAM for               rhoin:       0.23 MB

     Dynamical RAM for            rho*nmix:       1.44 MB

     Dynamical RAM for           G-vectors:       0.37 MB

     Dynamical RAM for          h,s,v(r/c):       0.46 MB

     Dynamical RAM for          <psi|beta>:       0.11 MB

     Dynamical RAM for                 psi:       0.81 MB

     Dynamical RAM for                hpsi:       0.81 MB

     Dynamical RAM for                spsi:       0.81 MB

     Dynamical RAM for      wfcinit/wfcrot:       0.97 MB

     Dynamical RAM for           addusdens:      17.11 MB

     Dynamical RAM for          addusforce:      17.71 MB

     Estimated static dynamical RAM per process >      18.70 MB

     Estimated max dynamical RAM per process >      37.86 MB

     Estimated total dynamical RAM >     227.14 MB

     Check: negative core charge=   -0.000237

     Initial potential from superposition of free atoms

     starting charge      83.9979, renormalised to      84.0000
     Starting wfcs are   56 randomized atomic wfcs
     Checking if some PAW data can be deallocated... 
       PAW data deallocated on    5 nodes for type:  1
       PAW data deallocated on    5 nodes for type:  2
       PAW data deallocated on    5 nodes for type:  3
       PAW data deallocated on    5 nodes for type:  4
       PAW data deallocated on    2 nodes for type:  5

     total cpu time spent up to now is        3.6 secs

     Self-consistent Calculation

     iteration #  1     ecut=    30.00 Ry     beta= 0.70
     Davidson diagonalization with overlap

---- Real-time Memory Report at c_bands before calling an iterative solver
            71 MiB given to the printing process from OS
             0 MiB allocation reported by mallinfo(arena+hblkhd)
          1750 MiB available memory on the node where the printing process lives
------------------
     ethr =  1.00E-02,  avg # of iterations =  2.0

     Threshold (ethr) on eigenvalues was too large:
     Diagonalizing with lowered threshold

     Davidson diagonalization with overlap

---- Real-time Memory Report at c_bands before calling an iterative solver
            80 MiB given to the printing process from OS
             0 MiB allocation reported by mallinfo(arena+hblkhd)
          1691 MiB available memory on the node where the printing process lives
------------------
     ethr =  4.28E-04,  avg # of iterations =  4.0

     total cpu time spent up to now is       13.7 secs

     total energy              =   -1410.59192758 Ry
     estimated scf accuracy    <       0.26410832 Ry

     iteration #  2     ecut=    30.00 Ry     beta= 0.70
     Davidson diagonalization with overlap

---- Real-time Memory Report at c_bands before calling an iterative solver
            80 MiB given to the printing process from OS
             0 MiB allocation reported by mallinfo(arena+hblkhd)
          1695 MiB available memory on the node where the printing process lives
------------------
     ethr =  3.14E-04,  avg # of iterations =  4.9

     total cpu time spent up to now is       20.1 secs

     total energy              =   -1410.34941150 Ry
     estimated scf accuracy    <       2.04338260 Ry

     iteration #  3     ecut=    30.00 Ry     beta= 0.70
     Davidson diagonalization with overlap

---- Real-time Memory Report at c_bands before calling an iterative solver
            80 MiB given to the printing process from OS
             0 MiB allocation reported by mallinfo(arena+hblkhd)
          1707 MiB available memory on the node where the printing process lives
------------------
     ethr =  3.14E-04,  avg # of iterations =  7.2

     total cpu time spent up to now is       28.1 secs

     total energy              =   -1410.15879823 Ry
     estimated scf accuracy    <      20.36290794 Ry

     iteration #  4     ecut=    30.00 Ry     beta= 0.70
     Davidson diagonalization with overlap

---- Real-time Memory Report at c_bands before calling an iterative solver
            80 MiB given to the printing process from OS
             0 MiB allocation reported by mallinfo(arena+hblkhd)
          1692 MiB available memory on the node where the printing process lives
------------------
     ethr =  3.14E-04,  avg # of iterations =  7.4

     total cpu time spent up to now is       36.3 secs

     total energy              =   -1410.31799039 Ry
     estimated scf accuracy    <      11.32569885 Ry

     iteration #  5     ecut=    30.00 Ry     beta= 0.70
     Davidson diagonalization with overlap

---- Real-time Memory Report at c_bands before calling an iterative solver
            81 MiB given to the printing process from OS
             0 MiB allocation reported by mallinfo(arena+hblkhd)
          1721 MiB available memory on the node where the printing process lives
------------------
     ethr =  3.14E-04,  avg # of iterations =  6.2

     total cpu time spent up to now is       42.7 secs

     total energy              =   -1410.54334668 Ry
     estimated scf accuracy    <       3.30668826 Ry

     iteration #  6     ecut=    30.00 Ry     beta= 0.70
     Davidson diagonalization with overlap

---- Real-time Memory Report at c_bands before calling an iterative solver
            81 MiB given to the printing process from OS
             0 MiB allocation reported by mallinfo(arena+hblkhd)
          1736 MiB available memory on the node where the printing process lives
------------------
     ethr =  3.14E-04,  avg # of iterations =  6.1

     total cpu time spent up to now is       48.4 secs

     total energy              =   -1410.50312743 Ry
     estimated scf accuracy    <       8.98838637 Ry

     iteration #  7     ecut=    30.00 Ry     beta= 0.70
     Davidson diagonalization with overlap

---- Real-time Memory Report at c_bands before calling an iterative solver
            81 MiB given to the printing process from OS
             0 MiB allocation reported by mallinfo(arena+hblkhd)
          1740 MiB available memory on the node where the printing process lives
------------------
     ethr =  3.14E-04,  avg # of iterations =  2.4

     total cpu time spent up to now is       53.0 secs

     total energy              =   -1410.63849762 Ry
     estimated scf accuracy    <       0.20533045 Ry

     iteration #  8     ecut=    30.00 Ry     beta= 0.70
     Davidson diagonalization with overlap

---- Real-time Memory Report at c_bands before calling an iterative solver
            81 MiB given to the printing process from OS
             0 MiB allocation reported by mallinfo(arena+hblkhd)
          1741 MiB available memory on the node where the printing process lives
------------------
     ethr =  2.44E-04,  avg # of iterations =  1.3

     total cpu time spent up to now is       57.3 secs

     total energy              =   -1410.64085799 Ry
     estimated scf accuracy    <       0.05294294 Ry

     iteration #  9     ecut=    30.00 Ry     beta= 0.70
     Davidson diagonalization with overlap

---- Real-time Memory Report at c_bands before calling an iterative solver
            81 MiB given to the printing process from OS
             0 MiB allocation reported by mallinfo(arena+hblkhd)
          1737 MiB available memory on the node where the printing process lives
------------------
     ethr =  6.30E-05,  avg # of iterations =  5.4

     total cpu time spent up to now is       62.7 secs

     total energy              =   -1410.64540869 Ry
     estimated scf accuracy    <       0.02098619 Ry

     iteration # 10     ecut=    30.00 Ry     beta= 0.70
     Davidson diagonalization with overlap

---- Real-time Memory Report at c_bands before calling an iterative solver
            81 MiB given to the printing process from OS
             0 MiB allocation reported by mallinfo(arena+hblkhd)
          1736 MiB available memory on the node where the printing process lives
------------------
     ethr =  2.50E-05,  avg # of iterations =  2.9

     total cpu time spent up to now is       67.4 secs

     total energy              =   -1410.64585271 Ry
     estimated scf accuracy    <       0.01283450 Ry

     iteration # 11     ecut=    30.00 Ry     beta= 0.70
     Davidson diagonalization with overlap

---- Real-time Memory Report at c_bands before calling an iterative solver
            81 MiB given to the printing process from OS
             0 MiB allocation reported by mallinfo(arena+hblkhd)
          1737 MiB available memory on the node where the printing process lives
------------------
     ethr =  1.53E-05,  avg # of iterations =  1.1

     total cpu time spent up to now is       71.6 secs

     total energy              =   -1410.64593439 Ry
     estimated scf accuracy    <       0.01135437 Ry

     iteration # 12     ecut=    30.00 Ry     beta= 0.70
     Davidson diagonalization with overlap

---- Real-time Memory Report at c_bands before calling an iterative solver
            81 MiB given to the printing process from OS
             0 MiB allocation reported by mallinfo(arena+hblkhd)
          1737 MiB available memory on the node where the printing process lives
------------------
     ethr =  1.35E-05,  avg # of iterations =  1.1

     total cpu time spent up to now is       75.8 secs

     total energy              =   -1410.64598427 Ry
     estimated scf accuracy    <       0.00208041 Ry

     iteration # 13     ecut=    30.00 Ry     beta= 0.70
     Davidson diagonalization with overlap

---- Real-time Memory Report at c_bands before calling an iterative solver
            81 MiB given to the printing process from OS
             0 MiB allocation reported by mallinfo(arena+hblkhd)
          1736 MiB available memory on the node where the printing process lives
------------------
     ethr =  2.48E-06,  avg # of iterations =  3.7

     total cpu time spent up to now is       80.6 secs

     total energy              =   -1410.64605984 Ry
     estimated scf accuracy    <       0.00010054 Ry

     iteration # 14     ecut=    30.00 Ry     beta= 0.70
     Davidson diagonalization with overlap

---- Real-time Memory Report at c_bands before calling an iterative solver
            81 MiB given to the printing process from OS
             0 MiB allocation reported by mallinfo(arena+hblkhd)
          1734 MiB available memory on the node where the printing process lives
------------------
     ethr =  1.20E-07,  avg # of iterations =  5.9

     total cpu time spent up to now is       86.2 secs

     total energy              =   -1410.64607697 Ry
     estimated scf accuracy    <       0.00021871 Ry

     iteration # 15     ecut=    30.00 Ry     beta= 0.70
     Davidson diagonalization with overlap

---- Real-time Memory Report at c_bands before calling an iterative solver
            81 MiB given to the printing process from OS
             0 MiB allocation reported by mallinfo(arena+hblkhd)
          1731 MiB available memory on the node where the printing process lives
------------------
     ethr =  1.20E-07,  avg # of iterations =  1.0

     total cpu time spent up to now is       90.3 secs

     total energy              =   -1410.64607810 Ry
     estimated scf accuracy    <       0.00004910 Ry

     iteration # 16     ecut=    30.00 Ry     beta= 0.70
     Davidson diagonalization with overlap

---- Real-time Memory Report at c_bands before calling an iterative solver
            81 MiB given to the printing process from OS
             0 MiB allocation reported by mallinfo(arena+hblkhd)
          1728 MiB available memory on the node where the printing process lives
------------------
     ethr =  5.85E-08,  avg # of iterations =  1.0

     total cpu time spent up to now is       94.5 secs

     total energy              =   -1410.64607854 Ry
     estimated scf accuracy    <       0.00001074 Ry

     iteration # 17     ecut=    30.00 Ry     beta= 0.70
     Davidson diagonalization with overlap

---- Real-time Memory Report at c_bands before calling an iterative solver
            81 MiB given to the printing process from OS
             0 MiB allocation reported by mallinfo(arena+hblkhd)
          1733 MiB available memory on the node where the printing process lives
------------------
     ethr =  1.28E-08,  avg # of iterations =  3.0

     total cpu time spent up to now is       99.2 secs

     total energy              =   -1410.64607894 Ry
     estimated scf accuracy    <       0.00000179 Ry

     iteration # 18     ecut=    30.00 Ry     beta= 0.70
     Davidson diagonalization with overlap

---- Real-time Memory Report at c_bands before calling an iterative solver
            81 MiB given to the printing process from OS
             0 MiB allocation reported by mallinfo(arena+hblkhd)
          1733 MiB available memory on the node where the printing process lives
------------------
     ethr =  2.13E-09,  avg # of iterations =  5.8

     total cpu time spent up to now is      105.1 secs

     total energy              =   -1410.64607935 Ry
     estimated scf accuracy    <       0.00000219 Ry

     iteration # 19     ecut=    30.00 Ry     beta= 0.70
     Davidson diagonalization with overlap

---- Real-time Memory Report at c_bands before calling an iterative solver
            81 MiB given to the printing process from OS
             0 MiB allocation reported by mallinfo(arena+hblkhd)
          1734 MiB available memory on the node where the printing process lives
------------------
     ethr =  2.13E-09,  avg # of iterations =  1.0

     total cpu time spent up to now is      109.2 secs

     total energy              =   -1410.64607936 Ry
     estimated scf accuracy    <       0.00000074 Ry

     iteration # 20     ecut=    30.00 Ry     beta= 0.70
     Davidson diagonalization with overlap

---- Real-time Memory Report at c_bands before calling an iterative solver
            81 MiB given to the printing process from OS
             0 MiB allocation reported by mallinfo(arena+hblkhd)
          1733 MiB available memory on the node where the printing process lives
------------------
     ethr =  8.81E-10,  avg # of iterations =  1.0

     total cpu time spent up to now is      113.4 secs

     total energy              =   -1410.64607937 Ry
     estimated scf accuracy    <       0.00000027 Ry

     iteration # 21     ecut=    30.00 Ry     beta= 0.70
     Davidson diagonalization with overlap

---- Real-time Memory Report at c_bands before calling an iterative solver
            81 MiB given to the printing process from OS
             0 MiB allocation reported by mallinfo(arena+hblkhd)
          1733 MiB available memory on the node where the printing process lives
------------------
     ethr =  3.19E-10,  avg # of iterations =  1.1

     total cpu time spent up to now is      117.6 secs

     total energy              =   -1410.64607938 Ry
     estimated scf accuracy    <       0.00000003 Ry

     iteration # 22     ecut=    30.00 Ry     beta= 0.70
     Davidson diagonalization with overlap

---- Real-time Memory Report at c_bands before calling an iterative solver
            81 MiB given to the printing process from OS
             0 MiB allocation reported by mallinfo(arena+hblkhd)
          1731 MiB available memory on the node where the printing process lives
------------------
     ethr =  3.89E-11,  avg # of iterations =  5.8

     total cpu time spent up to now is      123.2 secs

     total energy              =   -1410.64607938 Ry
     estimated scf accuracy    <          1.0E-09 Ry

     iteration # 23     ecut=    30.00 Ry     beta= 0.70
     Davidson diagonalization with overlap

---- Real-time Memory Report at c_bands before calling an iterative solver
            81 MiB given to the printing process from OS
             0 MiB allocation reported by mallinfo(arena+hblkhd)
          1727 MiB available memory on the node where the printing process lives
------------------
     ethr =  1.24E-12,  avg # of iterations =  6.7

     total cpu time spent up to now is      130.2 secs

     total energy              =   -1410.64607938 Ry
     estimated scf accuracy    <          1.0E-08 Ry

     iteration # 24     ecut=    30.00 Ry     beta= 0.70
     Davidson diagonalization with overlap

---- Real-time Memory Report at c_bands before calling an iterative solver
            81 MiB given to the printing process from OS
             0 MiB allocation reported by mallinfo(arena+hblkhd)
          1728 MiB available memory on the node where the printing process lives
------------------
     ethr =  1.24E-12,  avg # of iterations =  1.0

     total cpu time spent up to now is      134.3 secs

     total energy              =   -1410.64607938 Ry
     estimated scf accuracy    <          1.9E-09 Ry

     iteration # 25     ecut=    30.00 Ry     beta= 0.70
     Davidson diagonalization with overlap

---- Real-time Memory Report at c_bands before calling an iterative solver
            81 MiB given to the printing process from OS
             0 MiB allocation reported by mallinfo(arena+hblkhd)
          1727 MiB available memory on the node where the printing process lives
------------------
     ethr =  1.24E-12,  avg # of iterations =  1.0

     total cpu time spent up to now is      138.5 secs

     total energy              =   -1410.64607938 Ry
     estimated scf accuracy    <          1.4E-10 Ry

     iteration # 26     ecut=    30.00 Ry     beta= 0.70
     Davidson diagonalization with overlap

---- Real-time Memory Report at c_bands before calling an iterative solver
            81 MiB given to the printing process from OS
             0 MiB allocation reported by mallinfo(arena+hblkhd)
          1722 MiB available memory on the node where the printing process lives
------------------
     ethr =  1.62E-13,  avg # of iterations =  5.7

     total cpu time spent up to now is      143.9 secs

     total energy              =   -1410.64607938 Ry
     estimated scf accuracy    <          1.9E-10 Ry

     iteration # 27     ecut=    30.00 Ry     beta= 0.70
     Davidson diagonalization with overlap

---- Real-time Memory Report at c_bands before calling an iterative solver
            81 MiB given to the printing process from OS
             0 MiB allocation reported by mallinfo(arena+hblkhd)
          1710 MiB available memory on the node where the printing process lives
------------------
     ethr =  1.62E-13,  avg # of iterations =  1.0

     total cpu time spent up to now is      148.0 secs

     End of self-consistent calculation

          k = 0.0000 0.0000 0.0000 (  3203 PWs)   bands (ev):

   -72.2472 -72.2466 -72.2466 -72.2465 -40.9975 -40.9963 -40.9963 -40.9956
   -40.9855 -40.9855 -40.9850 -40.9833 -40.9823 -40.9823 -40.9821 -40.9819
    -6.5667  -5.9171  -5.9171  -5.7080   1.9984   1.9984   2.0049   3.5056
     3.5085   3.5104   3.6610   3.6610   3.6616   3.6616   3.7441   3.7469
     6.2721   6.6721   6.6741   6.8463   6.8463   6.8525   6.8525   6.9320
     6.9320   6.9882   7.0719   7.3897   7.3951   8.2866   8.2866   8.2896
     8.2896   9.2681

     occupation numbers 
     1.0000   1.0000   1.0000   1.0000   1.0000   1.0000   1.0000   1.0000
     1.0000   1.0000   1.0000   1.0000   1.0000   1.0000   1.0000   1.0000
     1.0000   1.0000   1.0000   1.0000   1.0000   1.0000   1.0000   1.0000
     1.0000   1.0000   1.0000   1.0000   1.0000   1.0000   1.0000   1.0000
     1.0000   1.0000   1.0000   0.9995   0.9995   0.9994   0.9994   0.9921
     0.9921   0.9664   0.8318   0.0096   0.0082   0.0000   0.0000   0.0000
     0.0000   0.0000

          k = 0.0000 0.0000 0.4899 (  3184 PWs)   bands (ev):

   -72.2468 -72.2467 -72.2466 -72.2464 -40.9970 -40.9970 -40.9970 -40.9968
   -40.9853 -40.9853 -40.9850 -40.9830 -40.9828 -40.9828 -40.9819 -40.9818
    -6.3580  -5.8498  -5.8498  -5.7847   2.2621   2.2621   2.2705   2.9269
     3.3331   3.3331   3.3646   3.5797   3.5814   3.6838   3.6838   3.7195
     6.3666   6.5186   6.5186   6.6807   6.6823   6.8712   6.8712   6.9527
     6.9528   6.9740   6.9740   7.7515   7.8008   7.9490   7.9490   7.9681
     7.9681   8.1564

     occupation numbers 
     1.0000   1.0000   1.0000   1.0000   1.0000   1.0000   1.0000   1.0000
     1.0000   1.0000   1.0000   1.0000   1.0000   1.0000   1.0000   1.0000
     1.0000   1.0000   1.0000   1.0000   1.0000   1.0000   1.0000   1.0000
     1.0000   1.0000   1.0000   1.0000   1.0000   1.0000   1.0000   1.0000
     1.0000   1.0000   1.0000   1.0000   1.0000   0.9988   0.9988   0.9861
     0.9860   0.9761   0.9761   0.0000   0.0000   0.0000   0.0000   0.0000
     0.0000   0.0000

          k = 0.0000 0.0000 0.9798 (  3151 PWs)   bands (ev):

   -72.2467 -72.2466 -72.2464 -72.2464 -40.9990 -40.9977 -40.9977 -40.9969
   -40.9849 -40.9847 -40.9847 -40.9831 -40.9831 -40.9824 -40.9824 -40.9823
    -5.9859  -5.8986  -5.7297  -5.7297   2.0844   2.0982   2.0982   2.1272
     3.5514   3.6165   3.6165   3.6541   3.6553   3.6724   3.7386   3.7386
     6.2783   6.2783   6.7447   6.7827   6.7836   6.8648   6.9657   6.9657
     6.9849   7.0673   7.0673   7.1234   7.5206   7.5206   7.5516   7.5516
     8.1822   8.2120

     occupation numbers 
     1.0000   1.0000   1.0000   1.0000   1.0000   1.0000   1.0000   1.0000
     1.0000   1.0000   1.0000   1.0000   1.0000   1.0000   1.0000   1.0000
     1.0000   1.0000   1.0000   1.0000   1.0000   1.0000   1.0000   1.0000
     1.0000   1.0000   1.0000   1.0000   1.0000   1.0000   1.0000   1.0000
     1.0000   1.0000   1.0000   1.0000   1.0000   0.9991   0.9805   0.9805
     0.9689   0.8434   0.8434   0.6647   0.0001   0.0001   0.0000   0.0000
     0.0000   0.0000

          k = 0.0000 0.3849-0.1361 (  3185 PWs)   bands (ev):

   -72.2469 -72.2468 -72.2466 -72.2465 -40.9972 -40.9966 -40.9962 -40.9955
   -40.9851 -40.9847 -40.9846 -40.9835 -40.9829 -40.9827 -40.9823 -40.9818
    -6.4169  -6.0943  -5.8685  -5.7642   2.2071   2.2151   2.3401   3.0814
     3.4034   3.4418   3.5618   3.5642   3.6277   3.6289   3.6806   3.7237
     6.3108   6.6067   6.6857   6.6884   6.7126   6.7172   6.8742   6.9394
     6.9791   6.9916   7.3896   7.6574   7.7126   8.0424   8.0709   8.3814
     8.5690   8.5728

     occupation numbers 
     1.0000   1.0000   1.0000   1.0000   1.0000   1.0000   1.0000   1.0000
     1.0000   1.0000   1.0000   1.0000   1.0000   1.0000   1.0000   1.0000
     1.0000   1.0000   1.0000   1.0000   1.0000   1.0000   1.0000   1.0000
     1.0000   1.0000   1.0000   1.0000   1.0000   1.0000   1.0000   1.0000
     1.0000   1.0000   1.0000   1.0000   1.0000   1.0000   0.9987   0.9903
     0.9729   0.9637   0.0096   0.0000   0.0000   0.0000   0.0000   0.0000
     0.0000   0.0000

          k = 0.0000 0.3849 0.3538 (  3165 PWs)   bands (ev):

   -72.2469 -72.2466 -72.2466 -72.2464 -40.9975 -40.9973 -40.9964 -40.9963
   -40.9848 -40.9846 -40.9846 -40.9834 -40.9827 -40.9825 -40.9824 -40.9822
    -6.3266  -5.9260  -5.8871  -5.7070   2.3729   2.3753   2.4421   2.9284
     3.1262   3.2146   3.2859   3.5605   3.5658   3.6750   3.6988   3.7095
     6.2710   6.4975   6.6216   6.6533   6.6807   6.7119   6.7981   6.8023
     7.0731   7.1660   7.1901   7.4109   7.7173   7.7882   7.9166   8.3917
     8.4678   8.4783

     occupation numbers 
     1.0000   1.0000   1.0000   1.0000   1.0000   1.0000   1.0000   1.0000
     1.0000   1.0000   1.0000   1.0000   1.0000   1.0000   1.0000   1.0000
     1.0000   1.0000   1.0000   1.0000   1.0000   1.0000   1.0000   1.0000
     1.0000   1.0000   1.0000   1.0000   1.0000   1.0000   1.0000   1.0000
     1.0000   1.0000   1.0000   1.0000   1.0000   1.0000   0.9999   0.9999
     0.8284   0.4932   0.3942   0.0052   0.0000   0.0000   0.0000   0.0000
     0.0000   0.0000

          k = 0.0000 0.3849 0.8437 (  3166 PWs)   bands (ev):

   -72.2466 -72.2466 -72.2465 -72.2465 -40.9983 -40.9983 -40.9974 -40.9972
   -40.9846 -40.9844 -40.9844 -40.9831 -40.9831 -40.9829 -40.9829 -40.9825
    -5.9859  -5.8333  -5.8025  -5.7350   2.3117   2.3487   2.3551   2.4255
     3.0654   3.1643   3.3926   3.4998   3.6458   3.6886   3.6990   3.7377
     6.3002   6.3891   6.4893   6.5146   6.7579   6.8268   6.8726   6.9184
     6.9881   7.0178   7.1375   7.2604   7.6031   7.6074   7.7049   7.8208
     8.0348   8.0555

     occupation numbers 
     1.0000   1.0000   1.0000   1.0000   1.0000   1.0000   1.0000   1.0000
     1.0000   1.0000   1.0000   1.0000   1.0000   1.0000   1.0000   1.0000
     1.0000   1.0000   1.0000   1.0000   1.0000   1.0000   1.0000   1.0000
     1.0000   1.0000   1.0000   1.0000   1.0000   1.0000   1.0000   1.0000
     1.0000   1.0000   1.0000   1.0000   1.0000   0.9998   0.9988   0.9947
     0.9665   0.9361   0.6099   0.1589   0.0000   0.0000   0.0000   0.0000
     0.0000   0.0000

          k = 0.0000 0.3849-1.1159 (  3158 PWs)   bands (ev):

   -72.2466 -72.2466 -72.2465 -72.2464 -40.9989 -40.9978 -40.9977 -40.9968
   -40.9845 -40.9843 -40.9840 -40.9835 -40.9832 -40.9830 -40.9829 -40.9824
    -5.9155  -5.8641  -5.8590  -5.7156   2.2037   2.2254   2.2305   2.2587
     3.3376   3.3585   3.4262   3.6513   3.6837   3.6933   3.7003   3.7056
     6.2608   6.2844   6.6650   6.6789   6.7521   6.7581   6.8254   7.0398
     7.0490   7.0534   7.0868   7.3751   7.4287   7.6709   7.7781   7.8011
     7.8515   7.9468

     occupation numbers 
     1.0000   1.0000   1.0000   1.0000   1.0000   1.0000   1.0000   1.0000
     1.0000   1.0000   1.0000   1.0000   1.0000   1.0000   1.0000   1.0000
     1.0000   1.0000   1.0000   1.0000   1.0000   1.0000   1.0000   1.0000
     1.0000   1.0000   1.0000   1.0000   1.0000   1.0000   1.0000   1.0000
     1.0000   1.0000   1.0000   1.0000   1.0000   1.0000   0.9998   0.9022
     0.8848   0.8757   0.7899   0.0142   0.0030   0.0000   0.0000   0.0000
     0.0000   0.0000

          k = 0.0000 0.3849-0.6260 (  3178 PWs)   bands (ev):

   -72.2468 -72.2467 -72.2466 -72.2464 -40.9974 -40.9973 -40.9966 -40.9964
   -40.9848 -40.9847 -40.9842 -40.9833 -40.9832 -40.9831 -40.9826 -40.9820
    -6.1488  -6.0799  -5.8952  -5.7408   2.4308   2.5042   2.5840   2.6202
     2.9244   3.2481   3.4304   3.5562   3.6195   3.6555   3.6881   3.6941
     6.3462   6.3982   6.5061   6.5630   6.6912   6.8196   6.8210   6.8985
     7.0641   7.2145   7.4967   7.6428   7.6723   7.7165   8.0026   8.0422
     8.1268   8.3183

     occupation numbers 
     1.0000   1.0000   1.0000   1.0000   1.0000   1.0000   1.0000   1.0000
     1.0000   1.0000   1.0000   1.0000   1.0000   1.0000   1.0000   1.0000
     1.0000   1.0000   1.0000   1.0000   1.0000   1.0000   1.0000   1.0000
     1.0000   1.0000   1.0000   1.0000   1.0000   1.0000   1.0000   1.0000
     1.0000   1.0000   1.0000   1.0000   1.0000   0.9998   0.9998   0.9971
     0.8512   0.3012   0.0003   0.0000   0.0000   0.0000   0.0000   0.0000
     0.0000   0.0000

          k = 0.3333 0.1925-0.2722 (  3186 PWs)   bands (ev):

   -72.2469 -72.2466 -72.2466 -72.2466 -40.9970 -40.9963 -40.9963 -40.9959
   -40.9849 -40.9849 -40.9842 -40.9830 -40.9829 -40.9829 -40.9825 -40.9823
    -6.3681  -5.9400  -5.9273  -5.9273   2.2850   2.3218   2.3218   3.0157
     3.3333   3.3333   3.5531   3.5566   3.6665   3.6696   3.6967   3.6967
     6.2555   6.5218   6.6499   6.6499   6.7675   6.8084   6.8084   6.9587
     7.1586   7.1586   7.7521   7.7893   7.7943   7.8345   7.8345   8.4684
     8.4684   8.6461

     occupation numbers 
     1.0000   1.0000   1.0000   1.0000   1.0000   1.0000   1.0000   1.0000
     1.0000   1.0000   1.0000   1.0000   1.0000   1.0000   1.0000   1.0000
     1.0000   1.0000   1.0000   1.0000   1.0000   1.0000   1.0000   1.0000
     1.0000   1.0000   1.0000   1.0000   1.0000   1.0000   1.0000   1.0000
     1.0000   1.0000   1.0000   1.0000   1.0000   0.9999   0.9999   0.9837
     0.5236   0.5236   0.0000   0.0000   0.0000   0.0000   0.0000   0.0000
     0.0000   0.0000

          k = 0.3333 0.1925 0.2177 (  3178 PWs)   bands (ev):

   -72.2469 -72.2466 -72.2466 -72.2465 -40.9980 -40.9969 -40.9969 -40.9959
   -40.9851 -40.9851 -40.9844 -40.9831 -40.9828 -40.9828 -40.9825 -40.9819
    -6.3933  -5.8476  -5.8476  -5.7459   2.2375   2.2375   2.2629   3.0230
     3.3279   3.3383   3.3383   3.5571   3.5756   3.6893   3.6893   3.7319
     6.3080   6.5712   6.5712   6.6488   6.7088   6.8398   6.8398   6.9168
     6.9259   6.9900   6.9900   7.6822   7.6908   7.9250   7.9250   8.0735
     8.0735   8.3049

     occupation numbers 
     1.0000   1.0000   1.0000   1.0000   1.0000   1.0000   1.0000   1.0000
     1.0000   1.0000   1.0000   1.0000   1.0000   1.0000   1.0000   1.0000
     1.0000   1.0000   1.0000   1.0000   1.0000   1.0000   1.0000   1.0000
     1.0000   1.0000   1.0000   1.0000   1.0000   1.0000   1.0000   1.0000
     1.0000   1.0000   1.0000   1.0000   1.0000   0.9996   0.9996   0.9950
     0.9934   0.9650   0.9650   0.0000   0.0000   0.0000   0.0000   0.0000
     0.0000   0.0000

          k = 0.3333 0.1925 0.7076 (  3164 PWs)   bands (ev):

   -72.2467 -72.2466 -72.2464 -72.2464 -40.9980 -40.9979 -40.9977 -40.9977
   -40.9847 -40.9847 -40.9844 -40.9832 -40.9832 -40.9829 -40.9827 -40.9822
    -6.0880  -5.8136  -5.7255  -5.7255   2.5376   2.5390   2.5794   2.5794
     2.9431   2.9431   2.9449   3.3982   3.6704   3.6800   3.6800   3.7261
     6.3064   6.3064   6.4932   6.5597   6.6717   6.6717   6.6770   6.8318
     7.0666   7.0666   7.1792   7.4535   7.4535   7.5304   7.5417   7.9682
     7.9685   7.9685

     occupation numbers 
     1.0000   1.0000   1.0000   1.0000   1.0000   1.0000   1.0000   1.0000
     1.0000   1.0000   1.0000   1.0000   1.0000   1.0000   1.0000   1.0000
     1.0000   1.0000   1.0000   1.0000   1.0000   1.0000   1.0000   1.0000
     1.0000   1.0000   1.0000   1.0000   1.0000   1.0000   1.0000   1.0000
     1.0000   1.0000   1.0000   1.0000   1.0000   1.0000   1.0000   0.9997
     0.8452   0.8452   0.4384   0.0013   0.0013   0.0001   0.0000   0.0000
     0.0000   0.0000

          k = 0.3333 0.1925-1.2520 (  3156 PWs)   bands (ev):

   -72.2466 -72.2466 -72.2464 -72.2464 -40.9991 -40.9978 -40.9978 -40.9968
   -40.9844 -40.9844 -40.9841 -40.9833 -40.9833 -40.9831 -40.9826 -40.9822
    -6.0395  -5.8516  -5.7280  -5.7280   2.2007   2.2280   2.2280   2.2822
     3.3526   3.3995   3.3995   3.5896   3.6598   3.6973   3.7195   3.7195
     6.2918   6.2918   6.6255   6.6846   6.8053   6.8185   6.8185   6.8209
     6.9963   7.0341   7.0341   7.2929   7.4906   7.4906   7.7575   7.7575
     7.8977   8.1810

     occupation numbers 
     1.0000   1.0000   1.0000   1.0000   1.0000   1.0000   1.0000   1.0000
     1.0000   1.0000   1.0000   1.0000   1.0000   1.0000   1.0000   1.0000
     1.0000   1.0000   1.0000   1.0000   1.0000   1.0000   1.0000   1.0000
     1.0000   1.0000   1.0000   1.0000   1.0000   1.0000   1.0000   1.0000
     1.0000   1.0000   1.0000   1.0000   0.9999   0.9998   0.9998   0.9998
     0.9596   0.9120   0.9120   0.0907   0.0003   0.0003   0.0000   0.0000
     0.0000   0.0000

          k = 0.3333 0.1925-0.7621 (  3171 PWs)   bands (ev):

   -72.2467 -72.2467 -72.2465 -72.2465 -40.9978 -40.9969 -40.9969 -40.9961
   -40.9846 -40.9846 -40.9841 -40.9831 -40.9831 -40.9829 -40.9826 -40.9824
    -6.1156  -6.0417  -5.8561  -5.8561   2.3602   2.3602   2.4279   2.5106
     3.3402   3.3402   3.5264   3.5559   3.6198   3.6334   3.6875   3.6875
     6.4217   6.4217   6.4796   6.5227   6.8515   6.8515   6.8614   6.9070
     7.1814   7.1814   7.4384   7.6001   7.6022   7.6022   8.1340   8.1340
     8.1642   8.3502

     occupation numbers 
     1.0000   1.0000   1.0000   1.0000   1.0000   1.0000   1.0000   1.0000
     1.0000   1.0000   1.0000   1.0000   1.0000   1.0000   1.0000   1.0000
     1.0000   1.0000   1.0000   1.0000   1.0000   1.0000   1.0000   1.0000
     1.0000   1.0000   1.0000   1.0000   1.0000   1.0000   1.0000   1.0000
     1.0000   1.0000   1.0000   1.0000   0.9994   0.9994   0.9992   0.9963
     0.4297   0.4297   0.0022   0.0000   0.0000   0.0000   0.0000   0.0000
     0.0000   0.0000

          k = 0.3333-0.5774 0.0000 (  3195 PWs)   bands (ev):

   -72.2468 -72.2468 -72.2468 -72.2465 -40.9969 -40.9964 -40.9964 -40.9958
   -40.9848 -40.9840 -40.9840 -40.9839 -40.9838 -40.9825 -40.9825 -40.9824
    -6.2088  -6.1016  -6.1016  -5.7595   2.5183   2.5183   2.6398   2.7089
     2.8089   3.4590   3.5479   3.5479   3.6137   3.6137   3.6346   3.7333
     6.3438   6.4570   6.4570   6.5751   6.7367   6.8215   6.8741   6.8741
     7.1176   7.5292   7.6316   7.6316   7.9213   7.9920   8.1404   8.2273
     8.2273   8.4772

     occupation numbers 
     1.0000   1.0000   1.0000   1.0000   1.0000   1.0000   1.0000   1.0000
     1.0000   1.0000   1.0000   1.0000   1.0000   1.0000   1.0000   1.0000
     1.0000   1.0000   1.0000   1.0000   1.0000   1.0000   1.0000   1.0000
     1.0000   1.0000   1.0000   1.0000   1.0000   1.0000   1.0000   1.0000
     1.0000   1.0000   1.0000   1.0000   1.0000   0.9998   0.9987   0.9987
     0.6862   0.0001   0.0000   0.0000   0.0000   0.0000   0.0000   0.0000
     0.0000   0.0000

          k = 0.3333-0.5774 0.4899 (  3179 PWs)   bands (ev):

   -72.2468 -72.2467 -72.2465 -72.2465 -40.9978 -40.9969 -40.9969 -40.9960
   -40.9847 -40.9840 -40.9839 -40.9837 -40.9837 -40.9829 -40.9825 -40.9824
    -6.2041  -6.0599  -5.8376  -5.7593   2.4184   2.4725   2.5305   2.6965
     2.9678   3.2090   3.4685   3.5235   3.6306   3.6352   3.6944   3.6984
     6.3932   6.4320   6.4781   6.5633   6.7122   6.7426   6.8057   6.8963
     7.0698   7.1691   7.5448   7.5590   7.5590   7.8973   8.0207   8.1043
     8.1621   8.1744

     occupation numbers 
     1.0000   1.0000   1.0000   1.0000   1.0000   1.0000   1.0000   1.0000
     1.0000   1.0000   1.0000   1.0000   1.0000   1.0000   1.0000   1.0000
     1.0000   1.0000   1.0000   1.0000   1.0000   1.0000   1.0000   1.0000
     1.0000   1.0000   1.0000   1.0000   1.0000   1.0000   1.0000   1.0000
     1.0000   1.0000   1.0000   1.0000   1.0000   1.0000   0.9999   0.9973
     0.8372   0.4803   0.0000   0.0000   0.0000   0.0000   0.0000   0.0000
     0.0000   0.0000

          k = 0.3333-0.5774 0.9798 (  3173 PWs)   bands (ev):

   -72.2467 -72.2466 -72.2465 -72.2465 -40.9984 -40.9982 -40.9974 -40.9973
   -40.9846 -40.9840 -40.9839 -40.9838 -40.9836 -40.9830 -40.9827 -40.9827
    -6.0144  -5.8046  -5.7800  -5.7595   2.4353   2.4468   2.4788   2.5825
     2.8803   3.0539   3.1294   3.4824   3.6526   3.6958   3.6971   3.7219
     6.3480   6.4250   6.4299   6.4784   6.6710   6.6909   6.7139   6.9294
     7.0730   7.0937   7.1384   7.4466   7.5253   7.5295   7.5425   7.9416
     7.9956   8.0598

     occupation numbers 
     1.0000   1.0000   1.0000   1.0000   1.0000   1.0000   1.0000   1.0000
     1.0000   1.0000   1.0000   1.0000   1.0000   1.0000   1.0000   1.0000
     1.0000   1.0000   1.0000   1.0000   1.0000   1.0000   1.0000   1.0000
     1.0000   1.0000   1.0000   1.0000   1.0000   1.0000   1.0000   1.0000
     1.0000   1.0000   1.0000   1.0000   1.0000   1.0000   1.0000   0.9927
     0.8287   0.7684   0.6062   0.0017   0.0001   0.0001   0.0000   0.0000
     0.0000   0.0000

          k =-0.3333 0.1925 0.1361 (  3185 PWs)   bands (ev):

   -72.2469 -72.2468 -72.2466 -72.2465 -40.9972 -40.9966 -40.9962 -40.9955
   -40.9851 -40.9847 -40.9846 -40.9835 -40.9829 -40.9827 -40.9823 -40.9818
    -6.4169  -6.0943  -5.8685  -5.7642   2.2071   2.2151   2.3401   3.0814
     3.4034   3.4418   3.5618   3.5642   3.6277   3.6289   3.6806   3.7237
     6.3108   6.6067   6.6857   6.6884   6.7126   6.7172   6.8742   6.9394
     6.9791   6.9916   7.3896   7.6574   7.7126   8.0424   8.0709   8.3814
     8.5690   8.5728

     occupation numbers 
     1.0000   1.0000   1.0000   1.0000   1.0000   1.0000   1.0000   1.0000
     1.0000   1.0000   1.0000   1.0000   1.0000   1.0000   1.0000   1.0000
     1.0000   1.0000   1.0000   1.0000   1.0000   1.0000   1.0000   1.0000
     1.0000   1.0000   1.0000   1.0000   1.0000   1.0000   1.0000   1.0000
     1.0000   1.0000   1.0000   1.0000   1.0000   1.0000   0.9987   0.9903
     0.9729   0.9637   0.0096   0.0000   0.0000   0.0000   0.0000   0.0000
     0.0000   0.0000

          k =-0.3333 0.1925-0.3538 (  3165 PWs)   bands (ev):

   -72.2469 -72.2466 -72.2466 -72.2464 -40.9975 -40.9973 -40.9964 -40.9963
   -40.9848 -40.9846 -40.9846 -40.9834 -40.9827 -40.9825 -40.9824 -40.9822
    -6.3266  -5.9260  -5.8871  -5.7070   2.3729   2.3753   2.4421   2.9284
     3.1262   3.2146   3.2859   3.5605   3.5658   3.6750   3.6988   3.7095
     6.2710   6.4975   6.6216   6.6533   6.6807   6.7119   6.7981   6.8023
     7.0731   7.1660   7.1901   7.4109   7.7173   7.7882   7.9166   8.3917
     8.4678   8.4783

     occupation numbers 
     1.0000   1.0000   1.0000   1.0000   1.0000   1.0000   1.0000   1.0000
     1.0000   1.0000   1.0000   1.0000   1.0000   1.0000   1.0000   1.0000
     1.0000   1.0000   1.0000   1.0000   1.0000   1.0000   1.0000   1.0000
     1.0000   1.0000   1.0000   1.0000   1.0000   1.0000   1.0000   1.0000
     1.0000   1.0000   1.0000   1.0000   1.0000   1.0000   0.9999   0.9999
     0.8284   0.4932   0.3942   0.0052   0.0000   0.0000   0.0000   0.0000
     0.0000   0.0000

          k =-0.3333 0.1925-0.8437 (  3166 PWs)   bands (ev):

   -72.2466 -72.2466 -72.2465 -72.2465 -40.9983 -40.9983 -40.9974 -40.9972
   -40.9846 -40.9844 -40.9844 -40.9831 -40.9831 -40.9829 -40.9829 -40.9825
    -5.9859  -5.8333  -5.8025  -5.7350   2.3117   2.3487   2.3551   2.4255
     3.0654   3.1643   3.3926   3.4998   3.6458   3.6886   3.6990   3.7377
     6.3002   6.3891   6.4893   6.5146   6.7579   6.8268   6.8726   6.9184
     6.9881   7.0178   7.1375   7.2604   7.6031   7.6074   7.7049   7.8208
     8.0348   8.0555

     occupation numbers 
     1.0000   1.0000   1.0000   1.0000   1.0000   1.0000   1.0000   1.0000
     1.0000   1.0000   1.0000   1.0000   1.0000   1.0000   1.0000   1.0000
     1.0000   1.0000   1.0000   1.0000   1.0000   1.0000   1.0000   1.0000
     1.0000   1.0000   1.0000   1.0000   1.0000   1.0000   1.0000   1.0000
     1.0000   1.0000   1.0000   1.0000   1.0000   0.9998   0.9988   0.9947
     0.9665   0.9361   0.6099   0.1589   0.0000   0.0000   0.0000   0.0000
     0.0000   0.0000

          k =-0.3333 0.1925 1.1159 (  3158 PWs)   bands (ev):

   -72.2466 -72.2466 -72.2465 -72.2464 -40.9989 -40.9978 -40.9977 -40.9968
   -40.9845 -40.9843 -40.9840 -40.9835 -40.9832 -40.9830 -40.9829 -40.9824
    -5.9155  -5.8641  -5.8590  -5.7156   2.2037   2.2254   2.2305   2.2587
     3.3376   3.3585   3.4262   3.6513   3.6837   3.6933   3.7003   3.7056
     6.2608   6.2844   6.6650   6.6789   6.7521   6.7581   6.8254   7.0398
     7.0490   7.0533   7.0868   7.3751   7.4287   7.6709   7.7781   7.8011
     7.8515   7.9468

     occupation numbers 
     1.0000   1.0000   1.0000   1.0000   1.0000   1.0000   1.0000   1.0000
     1.0000   1.0000   1.0000   1.0000   1.0000   1.0000   1.0000   1.0000
     1.0000   1.0000   1.0000   1.0000   1.0000   1.0000   1.0000   1.0000
     1.0000   1.0000   1.0000   1.0000   1.0000   1.0000   1.0000   1.0000
     1.0000   1.0000   1.0000   1.0000   1.0000   1.0000   0.9998   0.9022
     0.8848   0.8757   0.7899   0.0142   0.0030   0.0000   0.0000   0.0000
     0.0000   0.0000

          k =-0.3333 0.1925 0.6260 (  3178 PWs)   bands (ev):

   -72.2468 -72.2467 -72.2466 -72.2464 -40.9974 -40.9973 -40.9966 -40.9964
   -40.9848 -40.9847 -40.9842 -40.9833 -40.9832 -40.9831 -40.9826 -40.9820
    -6.1488  -6.0799  -5.8952  -5.7408   2.4308   2.5042   2.5840   2.6202
     2.9244   3.2481   3.4304   3.5562   3.6195   3.6555   3.6881   3.6941
     6.3462   6.3982   6.5061   6.5630   6.6912   6.8196   6.8210   6.8985
     7.0641   7.2145   7.4967   7.6428   7.6723   7.7165   8.0026   8.0422
     8.1268   8.3183

     occupation numbers 
     1.0000   1.0000   1.0000   1.0000   1.0000   1.0000   1.0000   1.0000
     1.0000   1.0000   1.0000   1.0000   1.0000   1.0000   1.0000   1.0000
     1.0000   1.0000   1.0000   1.0000   1.0000   1.0000   1.0000   1.0000
     1.0000   1.0000   1.0000   1.0000   1.0000   1.0000   1.0000   1.0000
     1.0000   1.0000   1.0000   1.0000   1.0000   0.9998   0.9998   0.9971
     0.8512   0.3012   0.0003   0.0000   0.0000   0.0000   0.0000   0.0000
     0.0000   0.0000

          k = 0.3333-0.5774-0.4899 (  3179 PWs)   bands (ev):

   -72.2468 -72.2467 -72.2465 -72.2465 -40.9978 -40.9969 -40.9969 -40.9960
   -40.9847 -40.9840 -40.9839 -40.9837 -40.9837 -40.9829 -40.9825 -40.9824
    -6.2041  -6.0599  -5.8376  -5.7593   2.4184   2.4725   2.5305   2.6965
     2.9678   3.2090   3.4685   3.5235   3.6306   3.6352   3.6944   3.6984
     6.3932   6.4320   6.4781   6.5633   6.7122   6.7426   6.8057   6.8963
     7.0698   7.1691   7.5448   7.5590   7.5590   7.8973   8.0207   8.1043
     8.1621   8.1744

     occupation numbers 
     1.0000   1.0000   1.0000   1.0000   1.0000   1.0000   1.0000   1.0000
     1.0000   1.0000   1.0000   1.0000   1.0000   1.0000   1.0000   1.0000
     1.0000   1.0000   1.0000   1.0000   1.0000   1.0000   1.0000   1.0000
     1.0000   1.0000   1.0000   1.0000   1.0000   1.0000   1.0000   1.0000
     1.0000   1.0000   1.0000   1.0000   1.0000   1.0000   0.9999   0.9973
     0.8372   0.4803   0.0000   0.0000   0.0000   0.0000   0.0000   0.0000
     0.0000   0.0000

          k = 0.3333-0.5774-0.9798 (  3173 PWs)   bands (ev):

   -72.2467 -72.2466 -72.2465 -72.2465 -40.9984 -40.9982 -40.9974 -40.9973
   -40.9846 -40.9840 -40.9839 -40.9838 -40.9836 -40.9830 -40.9827 -40.9827
    -6.0144  -5.8046  -5.7800  -5.7595   2.4353   2.4468   2.4788   2.5825
     2.8803   3.0539   3.1294   3.4824   3.6526   3.6958   3.6971   3.7219
     6.3480   6.4250   6.4299   6.4784   6.6710   6.6909   6.7139   6.9294
     7.0730   7.0937   7.1384   7.4466   7.5253   7.5295   7.5425   7.9416
     7.9956   8.0598

     occupation numbers 
     1.0000   1.0000   1.0000   1.0000   1.0000   1.0000   1.0000   1.0000
     1.0000   1.0000   1.0000   1.0000   1.0000   1.0000   1.0000   1.0000
     1.0000   1.0000   1.0000   1.0000   1.0000   1.0000   1.0000   1.0000
     1.0000   1.0000   1.0000   1.0000   1.0000   1.0000   1.0000   1.0000
     1.0000   1.0000   1.0000   1.0000   1.0000   1.0000   1.0000   0.9927
     0.8287   0.7684   0.6062   0.0017   0.0001   0.0001   0.0000   0.0000
     0.0000   0.0000

     the Fermi energy is     7.1643 ev

!    total energy              =   -1410.64607938 Ry
     total all-electron energy =    -12462.079694 Ry
     estimated scf accuracy    <          6.7E-11 Ry
     smearing contrib. (-TS)   =      -0.00975130 Ry
     internal energy E=F+TS    =   -1410.63632808 Ry

     The total energy is F=E-TS. E is the sum of the following terms:
     one-electron contribution =    -610.22279638 Ry
     hartree contribution      =     338.06605200 Ry
     xc contribution           =    -130.68917858 Ry
     ewald contribution        =    -513.02136846 Ry
     one-center paw contrib.   =    -494.76903666 Ry
      -> PAW hartree energy AE =     354.24332169 Ry
      -> PAW hartree energy PS =    -356.06635003 Ry
      -> PAW xc energy AE      =    -208.46298694 Ry
      -> PAW xc energy PS      =      55.13283097 Ry
      -> total E_H with PAW    =     336.24302366 Ry
      -> total E_XC with PAW   =    -284.01933455 Ry

     convergence has been achieved in  27 iterations

     Forces acting on atoms (cartesian axes, Ry/au):

     atom    1 type  1   force =    -0.00094835   -0.00054796    0.00242613
     atom    2 type  2   force =    -0.00094795   -0.00054657    0.00242533
     atom    3 type  3   force =    -0.00094766   -0.00054796    0.00242566
     atom    4 type  4   force =    -0.00094802   -0.00054681    0.00242552
     atom    5 type  5   force =     0.00094774    0.00054702   -0.00242538
     atom    6 type  5   force =     0.00094844    0.00054747   -0.00242601
     atom    7 type  5   force =     0.00094826    0.00054753   -0.00242590
     atom    8 type  5   force =     0.00094755    0.00054727   -0.00242535
     The non-local contrib.  to forces
     atom    1 type  1   force =     0.00022021    0.00012694   -0.00021079
     atom    2 type  2   force =     0.00022024    0.00012748   -0.00021102
     atom    3 type  3   force =     0.00022040    0.00012693   -0.00021091
     atom    4 type  4   force =     0.00022037    0.00012741   -0.00021104
     atom    5 type  5   force =    -0.00017392   -0.00010073    0.00035044
     atom    6 type  5   force =    -0.00017299   -0.00009975    0.00034955
     atom    7 type  5   force =    -0.00017313   -0.00010011    0.00034976
     atom    8 type  5   force =    -0.00017413   -0.00010018    0.00035034
     The ionic contribution  to forces
     atom    1 type  1   force =    -0.00000135   -0.00000078   -0.00000055
     atom    2 type  2   force =    -0.00000135   -0.00000078   -0.00000055
     atom    3 type  3   force =    -0.00000135   -0.00000078   -0.00000055
     atom    4 type  4   force =    -0.00000135   -0.00000078   -0.00000055
     atom    5 type  5   force =     0.00000135    0.00000078    0.00000055
     atom    6 type  5   force =     0.00000135    0.00000078    0.00000055
     atom    7 type  5   force =     0.00000135    0.00000078    0.00000055
     atom    8 type  5   force =     0.00000135    0.00000078    0.00000055
     The local contribution  to forces
     atom    1 type  1   force =    -0.00106838   -0.00061625    0.00232933
     atom    2 type  2   force =    -0.00106832   -0.00061796    0.00233036
     atom    3 type  3   force =    -0.00106863   -0.00061600    0.00232988
     atom    4 type  4   force =    -0.00106879   -0.00061776    0.00233023
     atom    5 type  5   force =     0.00110990    0.00063899   -0.00275549
     atom    6 type  5   force =     0.00111625    0.00064447   -0.00276148
     atom    7 type  5   force =     0.00111469    0.00064353   -0.00276017
     atom    8 type  5   force =     0.00110847    0.00064175   -0.00275553
     The core correction contribution to forces
     atom    1 type  1   force =    -0.00009976   -0.00005759    0.00030980
     atom    2 type  2   force =    -0.00009978   -0.00005761    0.00030981
     atom    3 type  3   force =    -0.00009978   -0.00005760    0.00030981
     atom    4 type  4   force =    -0.00009977   -0.00005760    0.00030980
     atom    5 type  5   force =     0.00000648    0.00000375   -0.00001553
     atom    6 type  5   force =     0.00000647    0.00000373   -0.00001551
     atom    7 type  5   force =     0.00000647    0.00000374   -0.00001552
     atom    8 type  5   force =     0.00000649    0.00000374   -0.00001552
     The Hubbard contrib.    to forces
     atom    1 type  1   force =     0.00000000    0.00000000    0.00000000
     atom    2 type  2   force =     0.00000000    0.00000000    0.00000000
     atom    3 type  3   force =     0.00000000    0.00000000    0.00000000
     atom    4 type  4   force =     0.00000000    0.00000000    0.00000000
     atom    5 type  5   force =     0.00000000    0.00000000    0.00000000
     atom    6 type  5   force =     0.00000000    0.00000000    0.00000000
     atom    7 type  5   force =     0.00000000    0.00000000    0.00000000
     atom    8 type  5   force =     0.00000000    0.00000000    0.00000000
     The SCF correction term to forces
     atom    1 type  1   force =    -0.00000043   -0.00000108    0.00000091
     atom    2 type  2   force =    -0.00000011    0.00000150   -0.00000069
     atom    3 type  3   force =     0.00000033   -0.00000131    0.00000001
     atom    4 type  4   force =     0.00000015    0.00000112   -0.00000035
     atom    5 type  5   force =     0.00000255    0.00000343   -0.00000278
     atom    6 type  5   force =    -0.00000401   -0.00000256    0.00000345
     atom    7 type  5   force =    -0.00000250   -0.00000121    0.00000204
     atom    8 type  5   force =     0.00000399    0.00000038   -0.00000262

     Total force =     0.007527     Total SCF correction =     0.000010

     BFGS Geometry Optimization
     Energy error            =      0.0E+00 Ry
     Gradient error          =      2.4E-03 Ry/Bohr

     number of scf cycles    =   1
     number of bfgs steps    =   0

     energy             new  =   -1410.6460793828 Ry

     new trust radius        =       0.0026619015 bohr
     new conv_thr            =            1.0E-10 Ry


ATOMIC_POSITIONS (crystal)
Mn1              0.3748902759        0.3748902252        0.7504019036
Mn2              0.3748902706        0.8748903560        0.7504017708
Mn3              0.8748903349        0.3748902382        0.7504018266
Mn4              0.8748902697        0.8748903319        0.7504018025
S                0.0001096989        0.0001096809       -0.0004017797
S                0.0001097459        0.5001097335       -0.0004018837
S                0.5001097286        0.0001097352       -0.0004018661
S                0.5001096756        0.5001096990       -0.0004017741



     Writing config-only to output data dir ./temp/mns.save/ :
     XML data file
     NEW-OLD atomic charge density approx. for the potential

     Check: negative core charge=   -0.000236

     total cpu time spent up to now is      150.4 secs

     Self-consistent Calculation

     iteration #  1     ecut=    30.00 Ry     beta= 0.70
     Davidson diagonalization with overlap

---- Real-time Memory Report at c_bands before calling an iterative solver
            82 MiB given to the printing process from OS
             0 MiB allocation reported by mallinfo(arena+hblkhd)
          1714 MiB available memory on the node where the printing process lives
------------------
     ethr =  1.00E-06,  avg # of iterations =  3.0

     Threshold (ethr) on eigenvalues was too large:
     Diagonalizing with lowered threshold

     Davidson diagonalization with overlap

---- Real-time Memory Report at c_bands before calling an iterative solver
            82 MiB given to the printing process from OS
             0 MiB allocation reported by mallinfo(arena+hblkhd)
          1670 MiB available memory on the node where the printing process lives
------------------
     ethr =  9.27E-09,  avg # of iterations =  5.8

     total cpu time spent up to now is      165.5 secs

     total energy              =   -1410.64612968 Ry
     estimated scf accuracy    <       0.00000905 Ry

     iteration #  2     ecut=    30.00 Ry     beta= 0.70
     Davidson diagonalization with overlap

---- Real-time Memory Report at c_bands before calling an iterative solver
            82 MiB given to the printing process from OS
             0 MiB allocation reported by mallinfo(arena+hblkhd)
          1670 MiB available memory on the node where the printing process lives
------------------
     ethr =  1.08E-08,  avg # of iterations =  5.7

     total cpu time spent up to now is      171.3 secs

     total energy              =   -1410.64611474 Ry
     estimated scf accuracy    <       0.00042088 Ry

     iteration #  3     ecut=    30.00 Ry     beta= 0.70
     Davidson diagonalization with overlap

---- Real-time Memory Report at c_bands before calling an iterative solver
            82 MiB given to the printing process from OS
             0 MiB allocation reported by mallinfo(arena+hblkhd)
          1678 MiB available memory on the node where the printing process lives
------------------
     ethr =  1.08E-08,  avg # of iterations =  6.1

     total cpu time spent up to now is      177.4 secs

     total energy              =   -1410.64612711 Ry
     estimated scf accuracy    <       0.00023105 Ry

     iteration #  4     ecut=    30.00 Ry     beta= 0.70
     Davidson diagonalization with overlap

---- Real-time Memory Report at c_bands before calling an iterative solver
            82 MiB given to the printing process from OS
             0 MiB allocation reported by mallinfo(arena+hblkhd)
          1677 MiB available memory on the node where the printing process lives
------------------
     ethr =  1.08E-08,  avg # of iterations =  5.6

     total cpu time spent up to now is      182.9 secs

     total energy              =   -1410.64612535 Ry
     estimated scf accuracy    <       0.00030964 Ry

     iteration #  5     ecut=    30.00 Ry     beta= 0.70
     Davidson diagonalization with overlap

---- Real-time Memory Report at c_bands before calling an iterative solver
            82 MiB given to the printing process from OS
             0 MiB allocation reported by mallinfo(arena+hblkhd)
          1683 MiB available memory on the node where the printing process lives
------------------
     ethr =  1.08E-08,  avg # of iterations =  4.0

     total cpu time spent up to now is      187.9 secs

     total energy              =   -1410.64613035 Ry
     estimated scf accuracy    <       0.00000460 Ry

     iteration #  6     ecut=    30.00 Ry     beta= 0.70
     Davidson diagonalization with overlap

---- Real-time Memory Report at c_bands before calling an iterative solver
            82 MiB given to the printing process from OS
             0 MiB allocation reported by mallinfo(arena+hblkhd)
          1682 MiB available memory on the node where the printing process lives
------------------
     ethr =  5.48E-09,  avg # of iterations =  3.0

     total cpu time spent up to now is      192.9 secs

     total energy              =   -1410.64613079 Ry
     estimated scf accuracy    <       0.00000028 Ry

     iteration #  7     ecut=    30.00 Ry     beta= 0.70
     Davidson diagonalization with overlap

---- Real-time Memory Report at c_bands before calling an iterative solver
            82 MiB given to the printing process from OS
             0 MiB allocation reported by mallinfo(arena+hblkhd)
          1679 MiB available memory on the node where the printing process lives
------------------
     ethr =  3.39E-10,  avg # of iterations =  7.7

     total cpu time spent up to now is      200.4 secs

     total energy              =   -1410.64612931 Ry
     estimated scf accuracy    <       0.00011344 Ry

     iteration #  8     ecut=    30.00 Ry     beta= 0.70
     Davidson diagonalization with overlap

---- Real-time Memory Report at c_bands before calling an iterative solver
            82 MiB given to the printing process from OS
             0 MiB allocation reported by mallinfo(arena+hblkhd)
          1678 MiB available memory on the node where the printing process lives
------------------
     ethr =  3.39E-10,  avg # of iterations =  6.6

     total cpu time spent up to now is      207.2 secs

     total energy              =   -1410.64613097 Ry
     estimated scf accuracy    <       0.00000025 Ry

     iteration #  9     ecut=    30.00 Ry     beta= 0.70
     Davidson diagonalization with overlap

---- Real-time Memory Report at c_bands before calling an iterative solver
            82 MiB given to the printing process from OS
             0 MiB allocation reported by mallinfo(arena+hblkhd)
          1674 MiB available memory on the node where the printing process lives
------------------
     ethr =  2.95E-10,  avg # of iterations =  1.0

     total cpu time spent up to now is      211.4 secs

     total energy              =   -1410.64613097 Ry
     estimated scf accuracy    <       0.00000007 Ry

     iteration # 10     ecut=    30.00 Ry     beta= 0.70
     Davidson diagonalization with overlap

---- Real-time Memory Report at c_bands before calling an iterative solver
            82 MiB given to the printing process from OS
             0 MiB allocation reported by mallinfo(arena+hblkhd)
          1672 MiB available memory on the node where the printing process lives
------------------
     ethr =  8.07E-11,  avg # of iterations =  2.0

     total cpu time spent up to now is      215.9 secs

     total energy              =   -1410.64613097 Ry
     estimated scf accuracy    <          6.3E-09 Ry

     iteration # 11     ecut=    30.00 Ry     beta= 0.70
     Davidson diagonalization with overlap

---- Real-time Memory Report at c_bands before calling an iterative solver
            82 MiB given to the printing process from OS
             0 MiB allocation reported by mallinfo(arena+hblkhd)
          1677 MiB available memory on the node where the printing process lives
------------------
     ethr =  7.44E-12,  avg # of iterations =  5.4

     total cpu time spent up to now is      221.9 secs

     total energy              =   -1410.64613098 Ry
     estimated scf accuracy    <          1.9E-09 Ry

     iteration # 12     ecut=    30.00 Ry     beta= 0.70
     Davidson diagonalization with overlap

---- Real-time Memory Report at c_bands before calling an iterative solver
            82 MiB given to the printing process from OS
             0 MiB allocation reported by mallinfo(arena+hblkhd)
          1677 MiB available memory on the node where the printing process lives
------------------
     ethr =  2.27E-12,  avg # of iterations =  1.8

     total cpu time spent up to now is      226.4 secs

     total energy              =   -1410.64613098 Ry
     estimated scf accuracy    <          5.8E-10 Ry

     iteration # 13     ecut=    30.00 Ry     beta= 0.70
     Davidson diagonalization with overlap

---- Real-time Memory Report at c_bands before calling an iterative solver
            82 MiB given to the printing process from OS
             0 MiB allocation reported by mallinfo(arena+hblkhd)
          1670 MiB available memory on the node where the printing process lives
------------------
     ethr =  6.94E-13,  avg # of iterations =  4.8

     total cpu time spent up to now is      231.7 secs

     End of self-consistent calculation

          k = 0.0000 0.0000 0.0000 (  3203 PWs)   bands (ev):

   -72.2474 -72.2468 -72.2468 -72.2467 -40.9966 -40.9954 -40.9954 -40.9947
   -40.9864 -40.9864 -40.9855 -40.9844 -40.9831 -40.9829 -40.9829 -40.9824
    -6.5667  -5.9169  -5.9169  -5.7080   1.9973   1.9973   2.0049   3.5063
     3.5070   3.5109   3.6632   3.6632   3.6644   3.6644   3.7427   3.7482
     6.2720   6.6719   6.6740   6.8474   6.8474   6.8504   6.8504   6.9292
     6.9292   6.9881   7.0717   7.3872   7.3973   8.2841   8.2841   8.2856
     8.2856   9.2602

     occupation numbers 
     1.0000   1.0000   1.0000   1.0000   1.0000   1.0000   1.0000   1.0000
     1.0000   1.0000   1.0000   1.0000   1.0000   1.0000   1.0000   1.0000
     1.0000   1.0000   1.0000   1.0000   1.0000   1.0000   1.0000   1.0000
     1.0000   1.0000   1.0000   1.0000   1.0000   1.0000   1.0000   1.0000
     1.0000   1.0000   1.0000   0.9995   0.9995   0.9994   0.9994   0.9927
     0.9927   0.9664   0.8318   0.0102   0.0077   0.0000   0.0000   0.0000
     0.0000   0.0000

          k = 0.0000 0.0000 0.4899 (  3184 PWs)   bands (ev):

   -72.2470 -72.2469 -72.2469 -72.2466 -40.9961 -40.9960 -40.9960 -40.9959
   -40.9862 -40.9862 -40.9855 -40.9840 -40.9834 -40.9834 -40.9830 -40.9823
    -6.3582  -5.8497  -5.8497  -5.7848   2.2608   2.2608   2.2698   2.9304
     3.3365   3.3365   3.3679   3.5769   3.5776   3.6844   3.6844   3.7163
     6.3671   6.5181   6.5181   6.6811   6.6830   6.8697   6.8697   6.9518
     6.9523   6.9715   6.9715   7.7526   7.8013   7.9495   7.9495   7.9655
     7.9655   8.1569

     occupation numbers 
     1.0000   1.0000   1.0000   1.0000   1.0000   1.0000   1.0000   1.0000
     1.0000   1.0000   1.0000   1.0000   1.0000   1.0000   1.0000   1.0000
     1.0000   1.0000   1.0000   1.0000   1.0000   1.0000   1.0000   1.0000
     1.0000   1.0000   1.0000   1.0000   1.0000   1.0000   1.0000   1.0000
     1.0000   1.0000   1.0000   1.0000   1.0000   0.9989   0.9989   0.9864
     0.9862   0.9774   0.9774   0.0000   0.0000   0.0000   0.0000   0.0000
     0.0000   0.0000

          k = 0.0000 0.0000 0.9798 (  3151 PWs)   bands (ev):

   -72.2469 -72.2468 -72.2466 -72.2466 -40.9980 -40.9967 -40.9967 -40.9959
   -40.9856 -40.9856 -40.9854 -40.9836 -40.9836 -40.9835 -40.9834 -40.9828
    -5.9863  -5.8986  -5.7297  -5.7297   2.0845   2.0980   2.0980   2.1293
     3.5523   3.6185   3.6185   3.6501   3.6502   3.6707   3.7372   3.7372
     6.2781   6.2781   6.7466   6.7828   6.7849   6.8630   6.9643   6.9643
     6.9847   7.0670   7.0670   7.1277   7.5209   7.5209   7.5517   7.5517
     8.1843   8.2107

     occupation numbers 
     1.0000   1.0000   1.0000   1.0000   1.0000   1.0000   1.0000   1.0000
     1.0000   1.0000   1.0000   1.0000   1.0000   1.0000   1.0000   1.0000
     1.0000   1.0000   1.0000   1.0000   1.0000   1.0000   1.0000   1.0000
     1.0000   1.0000   1.0000   1.0000   1.0000   1.0000   1.0000   1.0000
     1.0000   1.0000   1.0000   1.0000   1.0000   0.9991   0.9811   0.9811
     0.9689   0.8438   0.8438   0.6477   0.0001   0.0001   0.0000   0.0000
     0.0000   0.0000

          k = 0.0000 0.3849-0.1361 (  3185 PWs)   bands (ev):

   -72.2471 -72.2470 -72.2468 -72.2467 -40.9963 -40.9956 -40.9952 -40.9946
   -40.9859 -40.9856 -40.9853 -40.9844 -40.9837 -40.9835 -40.9829 -40.9823
    -6.4169  -6.0942  -5.8684  -5.7642   2.2063   2.2153   2.3388   3.0792
     3.4038   3.4389   3.5629   3.5663   3.6295   3.6315   3.6841   3.7276
     6.3100   6.6041   6.6855   6.6878   6.7128   6.7155   6.8748   6.9384
     6.9791   6.9901   7.3876   7.6551   7.7130   8.0400   8.0689   8.3813
     8.5675   8.5694

     occupation numbers 
     1.0000   1.0000   1.0000   1.0000   1.0000   1.0000   1.0000   1.0000
     1.0000   1.0000   1.0000   1.0000   1.0000   1.0000   1.0000   1.0000
     1.0000   1.0000   1.0000   1.0000   1.0000   1.0000   1.0000   1.0000
     1.0000   1.0000   1.0000   1.0000   1.0000   1.0000   1.0000   1.0000
     1.0000   1.0000   1.0000   1.0000   1.0000   1.0000   0.9987   0.9905
     0.9728   0.9648   0.0101   0.0000   0.0000   0.0000   0.0000   0.0000
     0.0000   0.0000

          k = 0.0000 0.3849 0.3538 (  3165 PWs)   bands (ev):

   -72.2471 -72.2468 -72.2468 -72.2466 -40.9966 -40.9964 -40.9955 -40.9954
   -40.9857 -40.9856 -40.9851 -40.9844 -40.9836 -40.9834 -40.9830 -40.9827
    -6.3267  -5.9259  -5.8871  -5.7071   2.3717   2.3744   2.4418   2.9292
     3.1268   3.2162   3.2880   3.5609   3.5639   3.6743   3.7005   3.7093
     6.2711   6.4975   6.6213   6.6522   6.6806   6.7124   6.7981   6.8004
     7.0730   7.1661   7.1881   7.4107   7.7173   7.7871   7.9167   8.3900
     8.4664   8.4776

     occupation numbers 
     1.0000   1.0000   1.0000   1.0000   1.0000   1.0000   1.0000   1.0000
     1.0000   1.0000   1.0000   1.0000   1.0000   1.0000   1.0000   1.0000
     1.0000   1.0000   1.0000   1.0000   1.0000   1.0000   1.0000   1.0000
     1.0000   1.0000   1.0000   1.0000   1.0000   1.0000   1.0000   1.0000
     1.0000   1.0000   1.0000   1.0000   1.0000   1.0000   0.9999   0.9999
     0.8283   0.4918   0.4020   0.0052   0.0000   0.0000   0.0000   0.0000
     0.0000   0.0000

          k = 0.0000 0.3849 0.8437 (  3166 PWs)   bands (ev):

   -72.2468 -72.2468 -72.2467 -72.2467 -40.9974 -40.9973 -40.9965 -40.9963
   -40.9853 -40.9853 -40.9851 -40.9842 -40.9839 -40.9838 -40.9835 -40.9830
    -5.9862  -5.8333  -5.8026  -5.7352   2.3117   2.3505   2.3553   2.4257
     3.0652   3.1635   3.3922   3.4966   3.6423   3.6896   3.6986   3.7356
     6.3015   6.3887   6.4897   6.5156   6.7587   6.8269   6.8714   6.9191
     6.9896   7.0173   7.1378   7.2644   7.6026   7.6065   7.7056   7.8220
     8.0349   8.0551

     occupation numbers 
     1.0000   1.0000   1.0000   1.0000   1.0000   1.0000   1.0000   1.0000
     1.0000   1.0000   1.0000   1.0000   1.0000   1.0000   1.0000   1.0000
     1.0000   1.0000   1.0000   1.0000   1.0000   1.0000   1.0000   1.0000
     1.0000   1.0000   1.0000   1.0000   1.0000   1.0000   1.0000   1.0000
     1.0000   1.0000   1.0000   1.0000   1.0000   0.9998   0.9988   0.9946
     0.9652   0.9366   0.6078   0.1488   0.0000   0.0000   0.0000   0.0000
     0.0000   0.0000

          k = 0.0000 0.3849-1.1159 (  3158 PWs)   bands (ev):

   -72.2468 -72.2468 -72.2467 -72.2466 -40.9980 -40.9969 -40.9968 -40.9958
   -40.9852 -40.9850 -40.9850 -40.9842 -40.9841 -40.9839 -40.9835 -40.9830
    -5.9155  -5.8644  -5.8591  -5.7156   2.2039   2.2272   2.2307   2.2589
     3.3337   3.3574   3.4252   3.6520   3.6845   3.6911   3.6968   3.7061
     6.2610   6.2846   6.6648   6.6820   6.7529   6.7585   6.8248   7.0399
     7.0506   7.0528   7.0869   7.3778   7.4289   7.6723   7.7753   7.8006
     7.8536   7.9457

     occupation numbers 
     1.0000   1.0000   1.0000   1.0000   1.0000   1.0000   1.0000   1.0000
     1.0000   1.0000   1.0000   1.0000   1.0000   1.0000   1.0000   1.0000
     1.0000   1.0000   1.0000   1.0000   1.0000   1.0000   1.0000   1.0000
     1.0000   1.0000   1.0000   1.0000   1.0000   1.0000   1.0000   1.0000
     1.0000   1.0000   1.0000   1.0000   1.0000   1.0000   0.9998   0.9018
     0.8810   0.8765   0.7891   0.0132   0.0030   0.0000   0.0000   0.0000
     0.0000   0.0000

          k = 0.0000 0.3849-0.6260 (  3178 PWs)   bands (ev):

   -72.2470 -72.2470 -72.2468 -72.2466 -40.9965 -40.9964 -40.9956 -40.9955
   -40.9857 -40.9852 -40.9852 -40.9841 -40.9841 -40.9839 -40.9831 -40.9826
    -6.1489  -6.0798  -5.8951  -5.7408   2.4303   2.5030   2.5828   2.6216
     2.9260   3.2492   3.4286   3.5600   3.6191   3.6537   3.6889   3.6947
     6.3449   6.3977   6.5060   6.5631   6.6905   6.8195   6.8201   6.8976
     7.0636   7.2129   7.4966   7.6426   7.6689   7.7186   8.0018   8.0429
     8.1258   8.3182

     occupation numbers 
     1.0000   1.0000   1.0000   1.0000   1.0000   1.0000   1.0000   1.0000
     1.0000   1.0000   1.0000   1.0000   1.0000   1.0000   1.0000   1.0000
     1.0000   1.0000   1.0000   1.0000   1.0000   1.0000   1.0000   1.0000
     1.0000   1.0000   1.0000   1.0000   1.0000   1.0000   1.0000   1.0000
     1.0000   1.0000   1.0000   1.0000   1.0000   0.9998   0.9998   0.9972
     0.8522   0.3061   0.0003   0.0000   0.0000   0.0000   0.0000   0.0000
     0.0000   0.0000

          k = 0.3333 0.1925-0.2722 (  3186 PWs)   bands (ev):

   -72.2471 -72.2468 -72.2468 -72.2468 -40.9961 -40.9953 -40.9953 -40.9950
   -40.9859 -40.9859 -40.9847 -40.9841 -40.9834 -40.9834 -40.9833 -40.9830
    -6.3682  -5.9401  -5.9271  -5.9271   2.2850   2.3206   2.3206   3.0156
     3.3354   3.3354   3.5526   3.5570   3.6656   3.6705   3.7000   3.7000
     6.2553   6.5217   6.6500   6.6500   6.7674   6.8050   6.8050   6.9586
     7.1555   7.1555   7.7521   7.7867   7.7964   7.8321   7.8321   8.4671
     8.4671   8.6459

     occupation numbers 
     1.0000   1.0000   1.0000   1.0000   1.0000   1.0000   1.0000   1.0000
     1.0000   1.0000   1.0000   1.0000   1.0000   1.0000   1.0000   1.0000
     1.0000   1.0000   1.0000   1.0000   1.0000   1.0000   1.0000   1.0000
     1.0000   1.0000   1.0000   1.0000   1.0000   1.0000   1.0000   1.0000
     1.0000   1.0000   1.0000   1.0000   1.0000   0.9999   0.9999   0.9837
     0.5360   0.5360   0.0000   0.0000   0.0000   0.0000   0.0000   0.0000
     0.0000   0.0000

          k = 0.3333 0.1925 0.2177 (  3178 PWs)   bands (ev):

   -72.2471 -72.2468 -72.2468 -72.2467 -40.9970 -40.9960 -40.9960 -40.9949
   -40.9860 -40.9860 -40.9848 -40.9842 -40.9834 -40.9834 -40.9830 -40.9830
    -6.3933  -5.8475  -5.8475  -5.7460   2.2365   2.2365   2.2627   3.0239
     3.3296   3.3399   3.3399   3.5588   3.5721   3.6913   3.6913   3.7276
     6.3093   6.5696   6.5696   6.6485   6.7091   6.8400   6.8400   6.9191
[...]
     1.0000   1.0000   1.0000   1.0000   1.0000   1.0000   1.0000   1.0000
     1.0000   1.0000   1.0000   1.0000   1.0000   1.0000   1.0000   1.0000
     1.0000   1.0000   1.0000   1.0000   1.0000   0.9999   0.9987   0.9987
     0.7310   0.0001   0.0000   0.0000   0.0000   0.0000   0.0000   0.0000
     0.0000   0.0000

          k = 0.3333-0.5774 0.4899 (  3179 PWs)   bands (ev):

   -72.2479 -72.2479 -72.2477 -72.2476 -40.9926 -40.9919 -40.9918 -40.9906
   -40.9900 -40.9896 -40.9894 -40.9890 -40.9867 -40.9861 -40.9858 -40.9852
    -6.2041  -6.0598  -5.8384  -5.7589   2.4213   2.4689   2.5273   2.6920
     2.9722   3.2029   3.4695   3.5257   3.6374   3.6441   3.6856   3.7098
     6.3785   6.4288   6.4812   6.5622   6.7065   6.7510   6.8018   6.8954
     7.0711   7.1732   7.5401   7.5521   7.5605   7.8897   8.0148   8.0991
     8.1574   8.1760

     occupation numbers 
     1.0000   1.0000   1.0000   1.0000   1.0000   1.0000   1.0000   1.0000
     1.0000   1.0000   1.0000   1.0000   1.0000   1.0000   1.0000   1.0000
     1.0000   1.0000   1.0000   1.0000   1.0000   1.0000   1.0000   1.0000
     1.0000   1.0000   1.0000   1.0000   1.0000   1.0000   1.0000   1.0000
     1.0000   1.0000   1.0000   1.0000   1.0000   1.0000   0.9999   0.9974
     0.8320   0.4603   0.0000   0.0000   0.0000   0.0000   0.0000   0.0000
     0.0000   0.0000

          k = 0.3333-0.5774 0.9798 (  3173 PWs)   bands (ev):

   -72.2478 -72.2477 -72.2477 -72.2476 -40.9931 -40.9929 -40.9921 -40.9921
   -40.9901 -40.9899 -40.9893 -40.9888 -40.9868 -40.9863 -40.9860 -40.9854
    -6.0152  -5.8056  -5.7814  -5.7594   2.4392   2.4519   2.4862   2.5869
     2.8741   3.0407   3.1198   3.4717   3.6472   3.6793   3.6876   3.7286
     6.3405   6.4248   6.4452   6.4840   6.6803   6.6982   6.7130   6.9344
     7.0718   7.0988   7.1441   7.4620   7.5203   7.5324   7.5421   7.9456
     7.9939   8.0662

     occupation numbers 
     1.0000   1.0000   1.0000   1.0000   1.0000   1.0000   1.0000   1.0000
     1.0000   1.0000   1.0000   1.0000   1.0000   1.0000   1.0000   1.0000
     1.0000   1.0000   1.0000   1.0000   1.0000   1.0000   1.0000   1.0000
     1.0000   1.0000   1.0000   1.0000   1.0000   1.0000   1.0000   1.0000
     1.0000   1.0000   1.0000   1.0000   1.0000   1.0000   1.0000   0.9914
     0.8302   0.7497   0.5807   0.0010   0.0001   0.0001   0.0000   0.0000
     0.0000   0.0000

          k =-0.3333 0.1925 0.1361 (  3185 PWs)   bands (ev):

   -72.2480 -72.2479 -72.2477 -72.2476 -40.9920 -40.9917 -40.9912 -40.9902
   -40.9902 -40.9899 -40.9896 -40.9886 -40.9870 -40.9860 -40.9853 -40.9846
    -6.4169  -6.0936  -5.8678  -5.7642   2.2028   2.2163   2.3323   3.0690
     3.4056   3.4255   3.5572   3.5864   3.6322   3.6487   3.6996   3.7452
     6.3064   6.5920   6.6841   6.6853   6.7077   6.7141   6.8767   6.9330
     6.9800   6.9837   7.3778   7.6447   7.7150   8.0286   8.0607   8.3805
     8.5526   8.5616

     occupation numbers 
     1.0000   1.0000   1.0000   1.0000   1.0000   1.0000   1.0000   1.0000
     1.0000   1.0000   1.0000   1.0000   1.0000   1.0000   1.0000   1.0000
     1.0000   1.0000   1.0000   1.0000   1.0000   1.0000   1.0000   1.0000
     1.0000   1.0000   1.0000   1.0000   1.0000   1.0000   1.0000   1.0000
     1.0000   1.0000   1.0000   1.0000   1.0000   1.0000   0.9986   0.9917
     0.9719   0.9693   0.0130   0.0000   0.0000   0.0000   0.0000   0.0000
     0.0000   0.0000

          k =-0.3333 0.1925-0.3538 (  3165 PWs)   bands (ev):

   -72.2480 -72.2477 -72.2477 -72.2475 -40.9922 -40.9922 -40.9913 -40.9910
   -40.9901 -40.9901 -40.9895 -40.9885 -40.9871 -40.9860 -40.9854 -40.9849
    -6.3270  -5.9254  -5.8871  -5.7074   2.3662   2.3699   2.4405   2.9321
     3.1289   3.2233   3.2972   3.5546   3.5633   3.6714   3.7083   3.7087
     6.2718   6.4974   6.6204   6.6471   6.6806   6.7147   6.7910   6.7983
     7.0725   7.1672   7.1785   7.4098   7.7173   7.7822   7.9169   8.3823
     8.4599   8.4739

     occupation numbers 
     1.0000   1.0000   1.0000   1.0000   1.0000   1.0000   1.0000   1.0000
     1.0000   1.0000   1.0000   1.0000   1.0000   1.0000   1.0000   1.0000
     1.0000   1.0000   1.0000   1.0000   1.0000   1.0000   1.0000   1.0000
     1.0000   1.0000   1.0000   1.0000   1.0000   1.0000   1.0000   1.0000
     1.0000   1.0000   1.0000   1.0000   1.0000   1.0000   0.9999   0.9999
     0.8283   0.4853   0.4385   0.0052   0.0000   0.0000   0.0000   0.0000
     0.0000   0.0000

          k =-0.3333 0.1925-0.8437 (  3166 PWs)   bands (ev):

   -72.2478 -72.2477 -72.2476 -72.2476 -40.9930 -40.9929 -40.9921 -40.9920
   -40.9901 -40.9899 -40.9892 -40.9888 -40.9872 -40.9862 -40.9858 -40.9852
    -5.9876  -5.8333  -5.8030  -5.7359   2.3115   2.3561   2.3588   2.4262
     3.0641   3.1601   3.3902   3.4817   3.6257   3.6943   3.6967   3.7259
     6.3079   6.3866   6.4914   6.5199   6.7624   6.8269   6.8652   6.9225
     6.9964   7.0148   7.1398   7.2824   7.6000   7.6019   7.7088   7.8277
     8.0355   8.0533

     occupation numbers 
     1.0000   1.0000   1.0000   1.0000   1.0000   1.0000   1.0000   1.0000
     1.0000   1.0000   1.0000   1.0000   1.0000   1.0000   1.0000   1.0000
     1.0000   1.0000   1.0000   1.0000   1.0000   1.0000   1.0000   1.0000
     1.0000   1.0000   1.0000   1.0000   1.0000   1.0000   1.0000   1.0000
     1.0000   1.0000   1.0000   1.0000   1.0000   0.9998   0.9990   0.9939
     0.9589   0.9391   0.5978   0.1085   0.0000   0.0000   0.0000   0.0000
     0.0000   0.0000

          k =-0.3333 0.1925 1.1159 (  3158 PWs)   bands (ev):

   -72.2477 -72.2477 -72.2476 -72.2475 -40.9935 -40.9927 -40.9926 -40.9915
   -40.9898 -40.9896 -40.9891 -40.9891 -40.9869 -40.9864 -40.9857 -40.9852
    -5.9157  -5.8662  -5.8596  -5.7159   2.2045   2.2315   2.2359   2.2596
     3.3155   3.3522   3.4203   3.6553   3.6805   3.6808   3.6887   3.7085
     6.2622   6.2853   6.6634   6.6958   6.7566   6.7608   6.8214   7.0401
     7.0505   7.0588   7.0876   7.3902   7.4295   7.6789   7.7625   7.7980
     7.8631   7.9406

     occupation numbers 
     1.0000   1.0000   1.0000   1.0000   1.0000   1.0000   1.0000   1.0000
     1.0000   1.0000   1.0000   1.0000   1.0000   1.0000   1.0000   1.0000
     1.0000   1.0000   1.0000   1.0000   1.0000   1.0000   1.0000   1.0000
     1.0000   1.0000   1.0000   1.0000   1.0000   1.0000   1.0000   1.0000
     1.0000   1.0000   1.0000   1.0000   1.0000   1.0000   0.9998   0.9004
     0.8801   0.8621   0.7854   0.0093   0.0029   0.0000   0.0000   0.0000
     0.0000   0.0000

          k =-0.3333 0.1925 0.6260 (  3178 PWs)   bands (ev):

   -72.2479 -72.2479 -72.2477 -72.2476 -40.9921 -40.9920 -40.9913 -40.9912
   -40.9904 -40.9899 -40.9893 -40.9889 -40.9871 -40.9862 -40.9854 -40.9849
    -6.1497  -6.0795  -5.8951  -5.7407   2.4277   2.4975   2.5771   2.6275
     2.9334   3.2534   3.4205   3.5773   3.6169   3.6451   3.6924   3.6981
     6.3393   6.3955   6.5058   6.5636   6.6873   6.8125   6.8227   6.8931
     7.0610   7.2059   7.4964   7.6420   7.6530   7.7281   7.9982   8.0459
     8.1209   8.3177

     occupation numbers 
     1.0000   1.0000   1.0000   1.0000   1.0000   1.0000   1.0000   1.0000
     1.0000   1.0000   1.0000   1.0000   1.0000   1.0000   1.0000   1.0000
     1.0000   1.0000   1.0000   1.0000   1.0000   1.0000   1.0000   1.0000
     1.0000   1.0000   1.0000   1.0000   1.0000   1.0000   1.0000   1.0000
     1.0000   1.0000   1.0000   1.0000   1.0000   0.9999   0.9998   0.9975
     0.8571   0.3303   0.0003   0.0000   0.0000   0.0000   0.0000   0.0000
     0.0000   0.0000

          k = 0.3333-0.5774-0.4899 (  3179 PWs)   bands (ev):

   -72.2479 -72.2479 -72.2477 -72.2476 -40.9926 -40.9919 -40.9918 -40.9906
   -40.9900 -40.9896 -40.9894 -40.9890 -40.9867 -40.9861 -40.9858 -40.9852
    -6.2041  -6.0598  -5.8384  -5.7589   2.4213   2.4689   2.5273   2.6920
     2.9722   3.2029   3.4695   3.5257   3.6374   3.6441   3.6856   3.7098
     6.3785   6.4288   6.4812   6.5622   6.7065   6.7510   6.8018   6.8954
     7.0711   7.1732   7.5401   7.5521   7.5605   7.8897   8.0148   8.0991
     8.1574   8.1760

     occupation numbers 
     1.0000   1.0000   1.0000   1.0000   1.0000   1.0000   1.0000   1.0000
     1.0000   1.0000   1.0000   1.0000   1.0000   1.0000   1.0000   1.0000
     1.0000   1.0000   1.0000   1.0000   1.0000   1.0000   1.0000   1.0000
     1.0000   1.0000   1.0000   1.0000   1.0000   1.0000   1.0000   1.0000
     1.0000   1.0000   1.0000   1.0000   1.0000   1.0000   0.9999   0.9974
     0.8320   0.4603   0.0000   0.0000   0.0000   0.0000   0.0000   0.0000
     0.0000   0.0000

          k = 0.3333-0.5774-0.9798 (  3173 PWs)   bands (ev):

   -72.2478 -72.2477 -72.2477 -72.2476 -40.9931 -40.9929 -40.9921 -40.9921
   -40.9901 -40.9899 -40.9893 -40.9888 -40.9868 -40.9863 -40.9860 -40.9854
    -6.0152  -5.8056  -5.7814  -5.7594   2.4392   2.4519   2.4862   2.5869
     2.8741   3.0407   3.1198   3.4717   3.6472   3.6793   3.6876   3.7286
     6.3405   6.4248   6.4452   6.4840   6.6803   6.6982   6.7130   6.9344
     7.0718   7.0988   7.1441   7.4620   7.5203   7.5324   7.5421   7.9456
     7.9939   8.0662

     occupation numbers 
     1.0000   1.0000   1.0000   1.0000   1.0000   1.0000   1.0000   1.0000
     1.0000   1.0000   1.0000   1.0000   1.0000   1.0000   1.0000   1.0000
     1.0000   1.0000   1.0000   1.0000   1.0000   1.0000   1.0000   1.0000
     1.0000   1.0000   1.0000   1.0000   1.0000   1.0000   1.0000   1.0000
     1.0000   1.0000   1.0000   1.0000   1.0000   1.0000   1.0000   0.9914
     0.8302   0.7497   0.5807   0.0010   0.0001   0.0001   0.0000   0.0000
     0.0000   0.0000

     the Fermi energy is     7.1636 ev

!    total energy              =   -1410.64623809 Ry
     total all-electron energy =    -12462.079852 Ry
     estimated scf accuracy    <          4.2E-13 Ry
     smearing contrib. (-TS)   =      -0.00967461 Ry
     internal energy E=F+TS    =   -1410.63656348 Ry

     The total energy is F=E-TS. E is the sum of the following terms:
     one-electron contribution =    -610.22777451 Ry
     hartree contribution      =     338.06594906 Ry
     xc contribution           =    -130.68888361 Ry
     ewald contribution        =    -513.01672946 Ry
     one-center paw contrib.   =    -494.76912495 Ry
      -> PAW hartree energy AE =     354.24061058 Ry
      -> PAW hartree energy PS =    -356.06367516 Ry
      -> PAW xc energy AE      =    -208.46277672 Ry
      -> PAW xc energy PS      =      55.13261556 Ry
      -> total E_H with PAW    =     336.24288449 Ry
      -> total E_XC with PAW   =    -284.01904477 Ry

     convergence has been achieved in  11 iterations

     Forces acting on atoms (cartesian axes, Ry/au):

     atom    1 type  1   force =     0.00002116    0.00001225    0.00001074
     atom    2 type  2   force =     0.00002131    0.00001239    0.00001060
     atom    3 type  3   force =     0.00002139    0.00001227    0.00001059
     atom    4 type  4   force =     0.00002128    0.00001219    0.00001073
     atom    5 type  5   force =    -0.00002127   -0.00001207   -0.00001076
     atom    6 type  5   force =    -0.00002140   -0.00001241   -0.00001054
     atom    7 type  5   force =    -0.00002130   -0.00001220   -0.00001068
     atom    8 type  5   force =    -0.00002116   -0.00001241   -0.00001068
     The non-local contrib.  to forces
     atom    1 type  1   force =     0.00009759    0.00005519    0.00029999
     atom    2 type  2   force =     0.00009713    0.00005643    0.00029977
     atom    3 type  3   force =     0.00009641    0.00005537    0.00030057
     atom    4 type  4   force =     0.00009685    0.00005707    0.00029977
     atom    5 type  5   force =    -0.00150797   -0.00087028    0.00361839
     atom    6 type  5   force =    -0.00150812   -0.00087078    0.00361864
     atom    7 type  5   force =    -0.00150791   -0.00087049    0.00361846
     atom    8 type  5   force =    -0.00150776   -0.00087085    0.00361848
     The ionic contribution  to forces
     atom    1 type  1   force =     0.02812536    0.01631265   -0.07014171
     atom    2 type  2   force =     0.02814357    0.01623938   -0.07012639
     atom    3 type  3   force =     0.02819951    0.01629169   -0.07017876
     atom    4 type  4   force =     0.02818185    0.01619386   -0.07013273
     atom    5 type  5   force =    -0.02814741   -0.01628216    0.07014306
     atom    6 type  5   force =    -0.02815371   -0.01624947    0.07013544
     atom    7 type  5   force =    -0.02817808   -0.01627177    0.07015890
     atom    8 type  5   force =    -0.02817110   -0.01623420    0.07014220
     The local contribution  to forces
     atom    1 type  1   force =    -0.02822334   -0.01636820    0.06986618
     atom    2 type  2   force =    -0.02824127   -0.01629625    0.06985124
     atom    3 type  3   force =    -0.02829672   -0.01634742    0.06990289
     atom    4 type  4   force =    -0.02827931   -0.01625117    0.06985751
     atom    5 type  5   force =     0.02956192    0.01709920   -0.07360324
     atom    6 type  5   force =     0.02956825    0.01706610   -0.07359547
     atom    7 type  5   force =     0.02959290    0.01708866   -0.07361924
     atom    8 type  5   force =     0.02958590    0.01705067   -0.07360236
     The core correction contribution to forces
     atom    1 type  1   force =     0.00002450    0.00001445   -0.00002786
     atom    2 type  2   force =     0.00002469    0.00001422   -0.00002787
     atom    3 type  3   force =     0.00002491    0.00001444   -0.00002807
     atom    4 type  4   force =     0.00002473    0.00001395   -0.00002779
     atom    5 type  5   force =     0.00007477    0.00004317   -0.00018296
     atom    6 type  5   force =     0.00007478    0.00004317   -0.00018297
     atom    7 type  5   force =     0.00007478    0.00004317   -0.00018297
     atom    8 type  5   force =     0.00007477    0.00004317   -0.00018296
     The Hubbard contrib.    to forces
     atom    1 type  1   force =     0.00000000    0.00000000    0.00000000
     atom    2 type  2   force =     0.00000000    0.00000000    0.00000000
     atom    3 type  3   force =     0.00000000    0.00000000    0.00000000
     atom    4 type  4   force =     0.00000000    0.00000000    0.00000000
     atom    5 type  5   force =     0.00000000    0.00000000    0.00000000
     atom    6 type  5   force =     0.00000000    0.00000000    0.00000000
     atom    7 type  5   force =     0.00000000    0.00000000    0.00000000
     atom    8 type  5   force =     0.00000000    0.00000000    0.00000000
     The SCF correction term to forces
     atom    1 type  1   force =    -0.00000013   -0.00000022    0.00000017
     atom    2 type  2   force =     0.00000000    0.00000023   -0.00000013
     atom    3 type  3   force =     0.00000011   -0.00000018   -0.00000001
     atom    4 type  4   force =    -0.00000002    0.00000010   -0.00000000
     atom    5 type  5   force =     0.00000024   -0.00000038    0.00000002
     atom    6 type  5   force =     0.00000021    0.00000019   -0.00000017
     atom    7 type  5   force =    -0.00000017   -0.00000016    0.00000020
     atom    8 type  5   force =    -0.00000016    0.00000042   -0.00000001

     Total force =     0.000076     Total SCF correction =     0.000001
     Energy error            =      7.7E-09 Ry
     Gradient error          =      2.1E-05 Ry/Bohr

     bfgs converged in   6 scf cycles and   5 bfgs steps
     (criteria: energy <  1.0E-05 Ry, force <  1.0E-04 Ry/Bohr)

     End of BFGS Geometry Optimization

     Final energy             =   -1410.6462380858 Ry

     File ./temp/mns.bfgs deleted, as requested
Begin final coordinates

ATOMIC_POSITIONS (crystal)
Mn1              0.3743876899        0.3743872427        0.7522579793
Mn2              0.3743874809        0.8743875482        0.7522578725
Mn3              0.8743873475        0.3743872778        0.7522582490
Mn4              0.8743872814        0.8743877542        0.7522578443
S                0.0006125049        0.0006124813       -0.0022578638
S                0.0006125852        0.5006126160       -0.0022581096
S                0.5006126064        0.0006125430       -0.0022580361
S                0.5006125037        0.5006125368       -0.0022579358
End final coordinates



     Writing all to output data dir ./temp/mns.save/ :
     XML data file, charge density, pseudopotentials, collected wavefunctions

     init_run     :      2.73s CPU      2.79s WALL (       1 calls)
     electrons    :    577.30s CPU    587.46s WALL (       6 calls)
     update_pot   :      1.68s CPU      1.68s WALL (       5 calls)
     forces       :      7.83s CPU      7.87s WALL (       6 calls)

     Called by init_run:
     wfcinit      :      1.45s CPU      1.47s WALL (       1 calls)
     wfcinit:atom :      0.01s CPU      0.01s WALL (      23 calls)
     wfcinit:wfcr :      1.36s CPU      1.38s WALL (      23 calls)
     potinit      :      0.48s CPU      0.50s WALL (       1 calls)
     hinit0       :      0.58s CPU      0.59s WALL (       1 calls)

     Called by electrons:
     c_bands      :    456.85s CPU    465.26s WALL (     107 calls)
     sum_band     :     67.42s CPU     69.08s WALL (     107 calls)
     v_of_rho     :      1.60s CPU      1.64s WALL (     107 calls)
     v_h          :      0.10s CPU      0.11s WALL (     107 calls)
     v_xc         :      1.58s CPU      1.61s WALL (     113 calls)
     newd         :     21.11s CPU     21.14s WALL (     107 calls)
     PAW_pot      :     34.50s CPU     34.53s WALL (     112 calls)
     mix_rho      :      0.29s CPU      0.30s WALL (     107 calls)

     Called by c_bands:
     init_us_2    :      6.01s CPU      6.06s WALL (    5198 calls)
     cegterg      :    444.57s CPU    452.89s WALL (    2461 calls)

     Called by sum_band:
     sum_band:wei :      0.08s CPU      0.08s WALL (     107 calls)
     sum_band:loo :     46.54s CPU     48.16s WALL (     107 calls)
     sum_band:buf :      1.31s CPU      1.32s WALL (    2461 calls)
     sum_band:ini :      2.55s CPU      2.56s WALL (    2461 calls)
     sum_band:cal :     24.18s CPU     24.41s WALL (    2576 calls)
     sum_band:bec :      0.71s CPU      0.71s WALL (    2576 calls)
     addusdens    :     20.52s CPU     20.54s WALL (     107 calls)
                                        0.00s GPU  (     107 calls)
     addusd:skk   :      0.08s CPU      0.08s WALL (     535 calls)
                                        0.00s GPU  (     535 calls)

     Called by *egterg:
     cdiaghg      :     47.64s CPU     47.68s WALL (   11658 calls)
     cegterg:over :     42.12s CPU     42.46s WALL (    9450 calls)
     cegterg:upda :     22.96s CPU     22.99s WALL (    9450 calls)
     cegterg:last :     49.59s CPU     49.62s WALL (    4786 calls)
     h_psi        :    208.99s CPU    216.69s WALL (   11934 calls)
     s_psi        :     51.68s CPU     51.75s WALL (   11934 calls)
     g_psi        :      0.39s CPU      0.40s WALL (    9450 calls)

     Called by h_psi:
     h_psi:calbec :     65.11s CPU     65.97s WALL (   11934 calls)
     vloc_psi     :     89.55s CPU     96.32s WALL (   11934 calls)
     add_vuspsi   :     52.43s CPU     52.50s WALL (   11934 calls)

     General routines
     calbec       :     94.01s CPU     95.15s WALL (   15062 calls)
     fft          :      0.97s CPU      1.01s WALL (    1456 calls)
     ffts         :      0.15s CPU      0.15s WALL (     214 calls)
     fftw         :     94.15s CPU    101.38s WALL (  733220 calls)
     interpolate  :      0.19s CPU      0.20s WALL (     107 calls)

     Parallel routines

     PAW routines
     PAW_pot      :     34.50s CPU     34.53s WALL (     112 calls)

     PWSCF        :   9m54.13s CPU  10m 4.49s WALL


   This run was terminated on:  19:33: 1  31Jan2025            

=------------------------------------------------------------------------------=
   JOB DONE.
=------------------------------------------------------------------------------=
