
     Program PROJWFC v.7.3.1 starts on 21Dec2024 at 20:40:30 

     This program is part of the open-source Quantum ESPRESSO suite
     for quantum simulation of materials; please cite
         "P. Giannozzi et al., J. Phys.:Condens. Matter 21 395502 (2009);
         "P. Giannozzi et al., J. Phys.:Condens. Matter 29 465901 (2017);
         "P. Giannozzi et al., J. Chem. Phys. 152 154105 (2020);
          URL http://www.quantum-espresso.org", 
     in publications or presentations arising from this work. More details at
     http://www.quantum-espresso.org/quote

     Parallel version (MPI), running on     8 processors

     MPI processes distributed on     1 nodes
     R & G space division:  proc/nbgrp/npool/nimage =       8
     10931 MiB available memory on the printing compute node when the environment starts


     Reading xml data from directory:

     ./temp/silicon.save/
     file Si.pbesol-n-kjpaw_psl.1.0.0.UPF: wavefunction(s)  3S 3P renormalized

     IMPORTANT: XC functional enforced from input :
     Exchange-correlation= PBESOL
                           (   1   4  10   8   0   0   0)
     Any further DFT definition will be discarded
     Please, verify this is what you really want


     Parallelization info
     --------------------
     sticks:   dense  smooth     PW     G-vecs:    dense   smooth      PW
     Min          91      91     27                 1617     1617     278
     Max          92      92     28                 1618     1618     280
     Sum         733     733    223                12939    12939    2229

     Using Slab Decomposition


     Linear tetrahedron method (read from file) 
     [opt_tetra]  Linear tetrahedron method is used.

     Calling projwave .... 
     Subspace diagonalization in iterative solution of the eigenvalue problem:
     a serial algorithm will be used


  Problem Sizes 
  natomwfc =            8
  nbnd     =            8
  nkstot   =           47
  npwx     =          207
  nkb      =           36


     Atomic states used for projection
     (read from pseudopotential files):

     state #   1: atom   1 (Si ), wfc  1 (l=0 m= 1)
     state #   2: atom   1 (Si ), wfc  2 (l=1 m= 1)
     state #   3: atom   1 (Si ), wfc  2 (l=1 m= 2)
     state #   4: atom   1 (Si ), wfc  2 (l=1 m= 3)
     state #   5: atom   2 (Si ), wfc  1 (l=0 m= 1)
     state #   6: atom   2 (Si ), wfc  2 (l=1 m= 1)
     state #   7: atom   2 (Si ), wfc  2 (l=1 m= 2)
     state #   8: atom   2 (Si ), wfc  2 (l=1 m= 3)

 k =   0.0000000000  0.0000000000  0.0000000000
==== e(   1) =    -5.83478 eV ==== 
     psi = 0.498*[#   1]+0.498*[#   5]
    |psi|^2 = 0.997
==== e(   2) =     6.14540 eV ==== 
     psi = 0.107*[#   2]+0.107*[#   3]+0.107*[#   4]+0.107*[#   6]+0.107*[#   7]
          +0.107*[#   8]
    |psi|^2 = 0.641
==== e(   3) =     6.14540 eV ==== 
     psi = 0.214*[#   2]+0.214*[#   3]+0.214*[#   4]+0.214*[#   6]+0.214*[#   7]
          +0.214*[#   8]
    |psi|^2 = 1.281
==== e(   4) =     6.14540 eV ==== 
     psi = 0.107*[#   2]+0.107*[#   3]+0.107*[#   4]+0.107*[#   6]+0.107*[#   7]
          +0.107*[#   8]
    |psi|^2 = 0.641
==== e(   5) =     8.66430 eV ==== 
     psi = 0.161*[#   2]+0.161*[#   3]+0.161*[#   4]+0.161*[#   6]+0.161*[#   7]
          +0.161*[#   8]
    |psi|^2 = 0.966
==== e(   6) =     8.66430 eV ==== 
     psi = 0.134*[#   2]+0.134*[#   3]+0.134*[#   4]+0.134*[#   6]+0.134*[#   7]
          +0.134*[#   8]
    |psi|^2 = 0.807
==== e(   7) =     8.66430 eV ==== 
     psi = 0.215*[#   2]+0.215*[#   3]+0.215*[#   4]+0.215*[#   6]+0.215*[#   7]
          +0.215*[#   8]
    |psi|^2 = 1.287
==== e(   8) =     9.43713 eV ==== 
     psi = 0.494*[#   1]+0.494*[#   5]+0.027*[#   2]+0.027*[#   3]+0.027*[#   4]
          +0.027*[#   6]+0.027*[#   7]+0.027*[#   8]
    |psi|^2 = 1.147

 k =   0.0707106781  0.0707106781 -0.0707106781
==== e(   1) =    -5.70361 eV ==== 
     psi = 0.466*[#   1]+0.466*[#   5]+0.011*[#   2]+0.011*[#   3]+0.011*[#   4]
          +0.011*[#   6]+0.011*[#   7]+0.011*[#   8]
    |psi|^2 = 0.996
==== e(   2) =     4.98764 eV ==== 
     psi = 0.096*[#   2]+0.096*[#   3]+0.096*[#   4]+0.096*[#   6]+0.096*[#   7]
          +0.096*[#   8]+0.072*[#   1]+0.072*[#   5]
    |psi|^2 = 0.719
==== e(   3) =     5.94448 eV ==== 
     psi = 0.100*[#   2]+0.100*[#   3]+0.100*[#   4]+0.100*[#   6]+0.100*[#   7]
          +0.100*[#   8]
    |psi|^2 = 0.600
==== e(   4) =     5.94449 eV ==== 
     psi = 0.207*[#   2]+0.207*[#   3]+0.207*[#   4]+0.207*[#   6]+0.207*[#   7]
          +0.207*[#   8]
    |psi|^2 = 1.245
==== e(   5) =     8.66186 eV ==== 
     psi = 0.126*[#   1]+0.126*[#   5]+0.118*[#   2]+0.118*[#   3]+0.118*[#   4]
          +0.118*[#   6]+0.118*[#   7]+0.118*[#   8]
    |psi|^2 = 0.960
==== e(   6) =     8.95893 eV ==== 
     psi = 0.199*[#   2]+0.199*[#   3]+0.199*[#   4]+0.199*[#   6]+0.199*[#   7]
          +0.199*[#   8]
    |psi|^2 = 1.193
==== e(   7) =     8.95894 eV ==== 
     psi = 0.053*[#   2]+0.053*[#   3]+0.053*[#   4]+0.053*[#   6]+0.053*[#   7]
          +0.053*[#   8]
    |psi|^2 = 0.319
==== e(   8) =    10.36936 eV ==== 
     psi = 0.325*[#   1]+0.325*[#   5]+0.115*[#   2]+0.115*[#   3]+0.115*[#   4]
          +0.115*[#   6]+0.115*[#   7]+0.115*[#   8]
    |psi|^2 = 1.344

 k =   0.1414213562  0.1414213562 -0.1414213562
==== e(   1) =    -5.31623 eV ==== 
     psi = 0.407*[#   1]+0.407*[#   5]+0.030*[#   2]+0.030*[#   3]+0.030*[#   4]
          +0.030*[#   6]+0.030*[#   7]+0.030*[#   8]
    |psi|^2 = 0.996
==== e(   2) =     3.11571 eV ==== 
     psi = 0.126*[#   1]+0.126*[#   5]+0.091*[#   2]+0.091*[#   3]+0.091*[#   4]
          +0.091*[#   6]+0.091*[#   7]+0.091*[#   8]
    |psi|^2 = 0.801
==== e(   3) =     5.56127 eV ==== 
     psi = 0.095*[#   2]+0.095*[#   3]+0.095*[#   4]+0.095*[#   6]+0.095*[#   7]
          +0.095*[#   8]
    |psi|^2 = 0.570
==== e(   4) =     5.56128 eV ==== 
     psi = 0.203*[#   2]+0.203*[#   3]+0.203*[#   4]+0.203*[#   6]+0.203*[#   7]
          +0.203*[#   8]
    |psi|^2 = 1.221
==== e(   5) =     8.29423 eV ==== 
     psi = 0.230*[#   1]+0.230*[#   5]+0.082*[#   2]+0.082*[#   3]+0.082*[#   4]
          +0.082*[#   6]+0.082*[#   7]+0.082*[#   8]
    |psi|^2 = 0.950
==== e(   6) =     9.46649 eV ==== 
     psi = 0.181*[#   2]+0.181*[#   3]+0.181*[#   4]+0.181*[#   6]+0.181*[#   7]
          +0.181*[#   8]
    |psi|^2 = 1.088
==== e(   7) =     9.46649 eV ==== 
     psi = 0.051*[#   2]+0.051*[#   3]+0.051*[#   4]+0.051*[#   6]+0.051*[#   7]
          +0.051*[#   8]
    |psi|^2 = 0.308
==== e(   8) =    12.12062 eV ==== 
     psi = 0.216*[#   1]+0.216*[#   5]+0.132*[#   2]+0.132*[#   3]+0.132*[#   4]
          +0.132*[#   6]+0.132*[#   7]+0.132*[#   8]
    |psi|^2 = 1.226

 k =   0.2121320344  0.2121320344 -0.2121320344
==== e(   1) =    -4.69879 eV ==== 
     psi = 0.368*[#   1]+0.368*[#   5]+0.043*[#   2]+0.043*[#   3]+0.043*[#   4]
          +0.043*[#   6]+0.043*[#   7]+0.043*[#   8]
    |psi|^2 = 0.996
==== e(   2) =     1.32306 eV ==== 
     psi = 0.150*[#   1]+0.150*[#   5]+0.091*[#   2]+0.091*[#   3]+0.091*[#   4]
          +0.091*[#   6]+0.091*[#   7]+0.091*[#   8]
    |psi|^2 = 0.845
==== e(   3) =     5.22588 eV ==== 
     psi = 0.093*[#   2]+0.093*[#   3]+0.093*[#   4]+0.093*[#   6]+0.093*[#   7]
          +0.093*[#   8]
    |psi|^2 = 0.557
==== e(   4) =     5.22589 eV ==== 
     psi = 0.202*[#   2]+0.202*[#   3]+0.202*[#   4]+0.202*[#   6]+0.202*[#   7]
          +0.202*[#   8]
    |psi|^2 = 1.213
==== e(   5) =     7.92686 eV ==== 
     psi = 0.291*[#   1]+0.291*[#   5]+0.059*[#   2]+0.059*[#   3]+0.059*[#   4]
          +0.059*[#   6]+0.059*[#   7]+0.059*[#   8]
    |psi|^2 = 0.937
==== e(   6) =     9.62784 eV ==== 
     psi = 0.159*[#   2]+0.159*[#   3]+0.159*[#   4]+0.159*[#   6]+0.159*[#   7]
          +0.159*[#   8]
    |psi|^2 = 0.957
==== e(   7) =     9.62784 eV ==== 
     psi = 0.047*[#   2]+0.047*[#   3]+0.047*[#   4]+0.047*[#   6]+0.047*[#   7]
          +0.047*[#   8]
    |psi|^2 = 0.280
==== e(   8) =    13.66018 eV ==== 
     psi = 0.123*[#   2]+0.123*[#   3]+0.123*[#   4]+0.123*[#   6]+0.123*[#   7]
          +0.123*[#   8]+0.120*[#   1]+0.120*[#   5]
    |psi|^2 = 0.978

 k =   0.2828427125  0.2828427125 -0.2828427125
==== e(   1) =    -3.94721 eV ==== 
     psi = 0.365*[#   1]+0.365*[#   5]+0.044*[#   2]+0.044*[#   3]+0.044*[#   4]
          +0.044*[#   6]+0.044*[#   7]+0.044*[#   8]
    |psi|^2 = 0.996
==== e(   2) =    -0.15992 eV ==== 
     psi = 0.143*[#   1]+0.143*[#   5]+0.093*[#   2]+0.093*[#   3]+0.093*[#   4]
          +0.093*[#   6]+0.093*[#   7]+0.093*[#   8]
    |psi|^2 = 0.843
==== e(   3) =     5.01388 eV ==== 
     psi = 0.094*[#   2]+0.094*[#   3]+0.094*[#   4]+0.094*[#   6]+0.094*[#   7]
          +0.094*[#   8]
    |psi|^2 = 0.563
==== e(   4) =     5.01389 eV ==== 
     psi = 0.203*[#   2]+0.203*[#   3]+0.203*[#   4]+0.203*[#   6]+0.203*[#   7]
          +0.203*[#   8]
    |psi|^2 = 1.221
==== e(   5) =     7.68540 eV ==== 
     psi = 0.328*[#   1]+0.328*[#   5]+0.045*[#   2]+0.045*[#   3]+0.045*[#   4]
          +0.045*[#   6]+0.045*[#   7]+0.045*[#   8]
    |psi|^2 = 0.924
==== e(   6) =     9.50195 eV ==== 
     psi = 0.145*[#   2]+0.145*[#   3]+0.145*[#   4]+0.145*[#   6]+0.145*[#   7]
          +0.145*[#   8]
    |psi|^2 = 0.870
==== e(   7) =     9.50195 eV ==== 
     psi = 0.043*[#   2]+0.043*[#   3]+0.043*[#   4]+0.043*[#   6]+0.043*[#   7]
          +0.043*[#   8]
    |psi|^2 = 0.260
==== e(   8) =    13.78783 eV ==== 
     psi = 0.084*[#   2]+0.084*[#   3]+0.084*[#   4]+0.084*[#   6]+0.084*[#   7]
          +0.084*[#   8]+0.025*[#   1]+0.025*[#   5]
    |psi|^2 = 0.553

 k =  -0.3535533906 -0.3535533906  0.3535533906
==== e(   1) =    -3.49027 eV ==== 
     psi = 0.387*[#   1]+0.387*[#   5]+0.037*[#   2]+0.037*[#   3]+0.037*[#   4]
          +0.037*[#   6]+0.037*[#   7]+0.037*[#   8]
    |psi|^2 = 0.997
==== e(   2) =    -0.86408 eV ==== 
     psi = 0.118*[#   1]+0.118*[#   5]+0.096*[#   2]+0.096*[#   3]+0.096*[#   4]
          +0.096*[#   6]+0.096*[#   7]+0.096*[#   8]
    |psi|^2 = 0.811
==== e(   3) =     4.94247 eV ==== 
     psi = 0.097*[#   2]+0.097*[#   3]+0.097*[#   4]+0.097*[#   6]+0.097*[#   7]
          +0.097*[#   8]
    |psi|^2 = 0.580
==== e(   4) =     4.94247 eV ==== 
     psi = 0.206*[#   2]+0.206*[#   3]+0.206*[#   4]+0.206*[#   6]+0.206*[#   7]
          +0.206*[#   8]
    |psi|^2 = 1.239
==== e(   5) =     7.60279 eV ==== 
     psi = 0.340*[#   1]+0.340*[#   5]+0.040*[#   2]+0.040*[#   3]+0.040*[#   4]
          +0.040*[#   6]+0.040*[#   7]+0.040*[#   8]
    |psi|^2 = 0.918
==== e(   6) =     9.42335 eV ==== 
     psi = 0.141*[#   2]+0.141*[#   3]+0.141*[#   4]+0.141*[#   6]+0.141*[#   7]
          +0.141*[#   8]
    |psi|^2 = 0.847
==== e(   7) =     9.42336 eV ==== 
     psi = 0.043*[#   2]+0.043*[#   3]+0.043*[#   4]+0.043*[#   6]+0.043*[#   7]
          +0.043*[#   8]
    |psi|^2 = 0.256
==== e(   8) =    13.66658 eV ==== 
     psi = 0.078*[#   2]+0.078*[#   3]+0.078*[#   4]+0.078*[#   6]+0.078*[#   7]
          +0.078*[#   8]+0.018*[#   1]+0.018*[#   5]
    |psi|^2 = 0.506

 k =   0.1414213562  0.0000000000  0.0000000000
==== e(   1) =    -5.65961 eV ==== 
     psi = 0.456*[#   1]+0.456*[#   5]+0.014*[#   2]+0.014*[#   3]+0.014*[#   4]
          +0.014*[#   6]+0.014*[#   7]+0.014*[#   8]
    |psi|^2 = 0.996
==== e(   2) =     5.20085 eV ==== 
     psi = 0.140*[#   2]+0.140*[#   3]+0.140*[#   4]+0.140*[#   6]+0.140*[#   7]
          +0.140*[#   8]+0.107*[#   1]+0.107*[#   5]
    |psi|^2 = 1.056
==== e(   3) =     5.56058 eV ==== 
     psi = 0.081*[#   2]+0.081*[#   3]+0.081*[#   4]+0.081*[#   6]+0.081*[#   7]
          +0.081*[#   8]
    |psi|^2 = 0.487
==== e(   4) =     5.56058 eV ==== 
     psi = 0.207*[#   2]+0.207*[#   3]+0.207*[#   4]+0.207*[#   6]+0.207*[#   7]
          +0.207*[#   8]
    |psi|^2 = 1.243
==== e(   5) =     8.26866 eV ==== 
     psi = 0.147*[#   2]+0.147*[#   3]+0.147*[#   4]+0.147*[#   6]+0.147*[#   7]
          +0.147*[#   8]+0.040*[#   1]+0.040*[#   5]
    |psi|^2 = 0.964
==== e(   6) =     9.46228 eV ==== 
     psi = 0.226*[#   2]+0.226*[#   3]+0.226*[#   4]+0.226*[#   6]+0.226*[#   7]
          +0.226*[#   8]
    |psi|^2 = 1.355
==== e(   7) =     9.46228 eV ==== 
     psi = 0.157*[#   2]+0.157*[#   3]+0.157*[#   4]+0.157*[#   6]+0.157*[#   7]
          +0.157*[#   8]
    |psi|^2 = 0.943
==== e(   8) =    10.26886 eV ==== 
     psi = 0.375*[#   1]+0.375*[#   5]+0.036*[#   2]+0.036*[#   3]+0.036*[#   4]
          +0.036*[#   6]+0.036*[#   7]+0.036*[#   8]
    |psi|^2 = 0.967

 k =   0.2121320344  0.0707106781 -0.0707106781
==== e(   1) =    -5.35647 eV ==== 
     psi = 0.409*[#   1]+0.409*[#   5]+0.030*[#   2]+0.030*[#   3]+0.030*[#   4]
          +0.030*[#   6]+0.030*[#   7]+0.030*[#   8]
    |psi|^2 = 0.996
==== e(   2) =     3.67925 eV ==== 
     psi = 0.130*[#   1]+0.130*[#   5]+0.113*[#   2]+0.113*[#   3]+0.113*[#   4]
          +0.113*[#   6]+0.113*[#   7]+0.113*[#   8]
    |psi|^2 = 0.939
==== e(   3) =     5.12263 eV ==== 
     psi = 0.113*[#   2]+0.113*[#   3]+0.113*[#   4]+0.113*[#   6]+0.113*[#   7]
          +0.113*[#   8]
    |psi|^2 = 0.680
==== e(   4) =     5.29420 eV ==== 
     psi = 0.168*[#   2]+0.168*[#   3]+0.168*[#   4]+0.168*[#   6]+0.168*[#   7]
          +0.168*[#   8]+0.037*[#   1]+0.037*[#   5]
    |psi|^2 = 1.080
==== e(   5) =     8.32368 eV ==== 
     psi = 0.136*[#   2]+0.136*[#   3]+0.136*[#   4]+0.136*[#   6]+0.136*[#   7]
          +0.136*[#   8]+0.066*[#   1]+0.066*[#   5]
    |psi|^2 = 0.948
==== e(   6) =     9.50815 eV ==== 
     psi = 0.185*[#   2]+0.185*[#   3]+0.185*[#   4]+0.185*[#   6]+0.185*[#   7]
          +0.185*[#   8]+0.121*[#   1]+0.121*[#   5]
    |psi|^2 = 1.355
==== e(   7) =    10.11701 eV ==== 
     psi = 0.131*[#   2]+0.131*[#   3]+0.131*[#   4]+0.131*[#   6]+0.131*[#   7]
          +0.131*[#   8]
    |psi|^2 = 0.785
==== e(   8) =    11.05601 eV ==== 
     psi = 0.128*[#   1]+0.128*[#   5]+0.055*[#   2]+0.055*[#   3]+0.055*[#   4]
          +0.055*[#   6]+0.055*[#   7]+0.055*[#   8]
    |psi|^2 = 0.585

 k =   0.2828427125  0.1414213562 -0.1414213562
==== e(   1) =    -4.81133 eV ==== 
     psi = 0.368*[#   1]+0.368*[#   5]+0.043*[#   2]+0.043*[#   3]+0.043*[#   4]
          +0.043*[#   6]+0.043*[#   7]+0.043*[#   8]
    |psi|^2 = 0.996
==== e(   2) =     1.91102 eV ==== 
     psi = 0.154*[#   1]+0.154*[#   5]+0.106*[#   2]+0.106*[#   3]+0.106*[#   4]
          +0.106*[#   6]+0.106*[#   7]+0.106*[#   8]
    |psi|^2 = 0.945
==== e(   3) =     4.80330 eV ==== 
     psi = 0.119*[#   2]+0.119*[#   3]+0.119*[#   4]+0.119*[#   6]+0.119*[#   7]
          +0.119*[#   8]
    |psi|^2 = 0.712
==== e(   4) =     4.85631 eV ==== 
     psi = 0.158*[#   2]+0.158*[#   3]+0.158*[#   4]+0.158*[#   6]+0.158*[#   7]
          +0.158*[#   8]+0.053*[#   1]+0.053*[#   5]
    |psi|^2 = 1.056
==== e(   5) =     8.45206 eV ==== 
     psi = 0.142*[#   1]+0.142*[#   5]+0.104*[#   2]+0.104*[#   3]+0.104*[#   4]
          +0.104*[#   6]+0.104*[#   7]+0.104*[#   8]
    |psi|^2 = 0.907
==== e(   6) =     9.48369 eV ==== 
     psi = 0.163*[#   2]+0.163*[#   3]+0.163*[#   4]+0.163*[#   6]+0.163*[#   7]
          +0.163*[#   8]+0.084*[#   1]+0.084*[#   5]
    |psi|^2 = 1.144
==== e(   7) =    10.39049 eV ==== 
     psi = 0.118*[#   2]+0.118*[#   3]+0.118*[#   4]+0.118*[#   6]+0.118*[#   7]
          +0.118*[#   8]
    |psi|^2 = 0.706
==== e(   8) =    11.38029 eV ==== 
     psi = 0.065*[#   1]+0.065*[#   5]+0.061*[#   2]+0.061*[#   3]+0.061*[#   4]
          +0.061*[#   6]+0.061*[#   7]+0.061*[#   8]
    |psi|^2 = 0.493

 k =   0.3535533906  0.2121320344 -0.2121320344
==== e(   1) =    -4.08386 eV ==== 
     psi = 0.353*[#   1]+0.353*[#   5]+0.048*[#   2]+0.048*[#   3]+0.048*[#   4]
          +0.048*[#   6]+0.048*[#   7]+0.048*[#   8]
    |psi|^2 = 0.996
==== e(   2) =     0.33073 eV ==== 
     psi = 0.157*[#   1]+0.157*[#   5]+0.103*[#   2]+0.103*[#   3]+0.103*[#   4]
          +0.103*[#   6]+0.103*[#   7]+0.103*[#   8]
    |psi|^2 = 0.930
==== e(   3) =     4.44207 eV ==== 
     psi = 0.158*[#   2]+0.158*[#   3]+0.158*[#   4]+0.158*[#   6]+0.158*[#   7]
          +0.158*[#   8]+0.058*[#   1]+0.058*[#   5]
    |psi|^2 = 1.065
==== e(   4) =     4.65704 eV ==== 
     psi = 0.117*[#   2]+0.117*[#   3]+0.117*[#   4]+0.117*[#   6]+0.117*[#   7]
          +0.117*[#   8]
    |psi|^2 = 0.702
==== e(   5) =     8.30667 eV ==== 
     psi = 0.204*[#   1]+0.204*[#   5]+0.080*[#   2]+0.080*[#   3]+0.080*[#   4]
          +0.080*[#   6]+0.080*[#   7]+0.080*[#   8]
    |psi|^2 = 0.887
==== e(   6) =     9.42819 eV ==== 
     psi = 0.146*[#   2]+0.146*[#   3]+0.146*[#   4]+0.146*[#   6]+0.146*[#   7]
          +0.146*[#   8]+0.049*[#   1]+0.049*[#   5]
    |psi|^2 = 0.972
==== e(   7) =    10.20120 eV ==== 
     psi = 0.104*[#   2]+0.104*[#   3]+0.104*[#   4]+0.104*[#   6]+0.104*[#   7]
          +0.104*[#   8]
    |psi|^2 = 0.625
==== e(   8) =    12.45106 eV ==== 
     psi = 0.076*[#   2]+0.076*[#   3]+0.076*[#   4]+0.076*[#   6]+0.076*[#   7]
          +0.076*[#   8]+0.056*[#   1]+0.056*[#   5]
    |psi|^2 = 0.569

 k =  -0.2828427125 -0.4242640687  0.4242640687
==== e(   1) =    -3.43675 eV ==== 
     psi = 0.373*[#   1]+0.373*[#   5]+0.042*[#   2]+0.042*[#   3]+0.042*[#   4]
          +0.042*[#   6]+0.042*[#   7]+0.042*[#   8]
    |psi|^2 = 0.997
==== e(   2) =    -0.71435 eV ==== 
     psi = 0.132*[#   1]+0.132*[#   5]+0.100*[#   2]+0.100*[#   3]+0.100*[#   4]
          +0.100*[#   6]+0.100*[#   7]+0.100*[#   8]
    |psi|^2 = 0.866
==== e(   3) =     4.14974 eV ==== 
     psi = 0.159*[#   2]+0.159*[#   3]+0.159*[#   4]+0.159*[#   6]+0.159*[#   7]
          +0.159*[#   8]+0.057*[#   1]+0.057*[#   5]
    |psi|^2 = 1.071
==== e(   4) =     4.69206 eV ==== 
     psi = 0.121*[#   2]+0.121*[#   3]+0.121*[#   4]+0.121*[#   6]+0.121*[#   7]
          +0.121*[#   8]
    |psi|^2 = 0.728
==== e(   5) =     8.22136 eV ==== 
     psi = 0.235*[#   1]+0.235*[#   5]+0.069*[#   2]+0.069*[#   3]+0.069*[#   4]
          +0.069*[#   6]+0.069*[#   7]+0.069*[#   8]
    |psi|^2 = 0.886
==== e(   6) =     9.38857 eV ==== 
     psi = 0.143*[#   2]+0.143*[#   3]+0.143*[#   4]+0.143*[#   6]+0.143*[#   7]
          +0.143*[#   8]+0.038*[#   1]+0.038*[#   5]
    |psi|^2 = 0.934
==== e(   7) =     9.92822 eV ==== 
     psi = 0.097*[#   2]+0.097*[#   3]+0.097*[#   4]+0.097*[#   6]+0.097*[#   7]
          +0.097*[#   8]
    |psi|^2 = 0.581
==== e(   8) =    13.82152 eV ==== 
     psi = 0.081*[#   2]+0.081*[#   3]+0.081*[#   4]+0.081*[#   6]+0.081*[#   7]
          +0.081*[#   8]+0.043*[#   1]+0.043*[#   5]
    |psi|^2 = 0.571

 k =  -0.2121320344 -0.3535533906  0.3535533906
==== e(   1) =    -3.60615 eV ==== 
     psi = 0.364*[#   1]+0.364*[#   5]+0.045*[#   2]+0.045*[#   3]+0.045*[#   4]
          +0.045*[#   6]+0.045*[#   7]+0.045*[#   8]
    |psi|^2 = 0.996
==== e(   2) =    -0.46310 eV ==== 
     psi = 0.142*[#   1]+0.142*[#   5]+0.091*[#   2]+0.091*[#   3]+0.091*[#   4]
          +0.091*[#   6]+0.091*[#   7]+0.091*[#   8]
    |psi|^2 = 0.831
==== e(   3) =     4.01950 eV ==== 
     psi = 0.154*[#   2]+0.154*[#   3]+0.154*[#   4]+0.154*[#   6]+0.154*[#   7]
          +0.154*[#   8]+0.054*[#   1]+0.054*[#   5]
    |psi|^2 = 1.030
==== e(   4) =     4.89432 eV ==== 
     psi = 0.127*[#   2]+0.127*[#   3]+0.127*[#   4]+0.127*[#   6]+0.127*[#   7]
          +0.127*[#   8]
    |psi|^2 = 0.765
==== e(   5) =     8.28611 eV ==== 
     psi = 0.245*[#   1]+0.245*[#   5]+0.068*[#   2]+0.068*[#   3]+0.068*[#   4]
          +0.068*[#   6]+0.068*[#   7]+0.068*[#   8]
    |psi|^2 = 0.896
==== e(   6) =     9.51869 eV ==== 
     psi = 0.149*[#   2]+0.149*[#   3]+0.149*[#   4]+0.149*[#   6]+0.149*[#   7]
          +0.149*[#   8]+0.027*[#   1]+0.027*[#   5]
    |psi|^2 = 0.947
==== e(   7) =     9.77219 eV ==== 
     psi = 0.094*[#   2]+0.094*[#   3]+0.094*[#   4]+0.094*[#   6]+0.094*[#   7]
          +0.094*[#   8]
    |psi|^2 = 0.561
==== e(   8) =    14.05153 eV ==== 
     psi = 0.089*[#   2]+0.089*[#   3]+0.089*[#   4]+0.089*[#   6]+0.089*[#   7]
          +0.089*[#   8]+0.047*[#   1]+0.047*[#   5]
    |psi|^2 = 0.627

 k =  -0.1414213562 -0.2828427125  0.2828427125
==== e(   1) =    -4.34079 eV ==== 
     psi = 0.355*[#   1]+0.355*[#   5]+0.048*[#   2]+0.048*[#   3]+0.048*[#   4]
          +0.048*[#   6]+0.048*[#   7]+0.048*[#   8]
    |psi|^2 = 0.996
==== e(   2) =     0.82707 eV ==== 
     psi = 0.158*[#   1]+0.158*[#   5]+0.084*[#   2]+0.084*[#   3]+0.084*[#   4]
          +0.084*[#   6]+0.084*[#   7]+0.084*[#   8]
    |psi|^2 = 0.821
==== e(   3) =     4.07782 eV ==== 
     psi = 0.152*[#   2]+0.152*[#   3]+0.152*[#   4]+0.152*[#   6]+0.152*[#   7]
          +0.152*[#   8]+0.048*[#   1]+0.048*[#   5]
    |psi|^2 = 1.006
==== e(   4) =     5.23165 eV ==== 
     psi = 0.126*[#   2]+0.126*[#   3]+0.126*[#   4]+0.126*[#   6]+0.126*[#   7]
          +0.126*[#   8]
    |psi|^2 = 0.754
==== e(   5) =     8.49476 eV ==== 
     psi = 0.231*[#   1]+0.231*[#   5]+0.076*[#   2]+0.076*[#   3]+0.076*[#   4]
          +0.076*[#   6]+0.076*[#   7]+0.076*[#   8]
    |psi|^2 = 0.915
==== e(   6) =     9.70733 eV ==== 
     psi = 0.134*[#   2]+0.134*[#   3]+0.134*[#   4]+0.134*[#   6]+0.134*[#   7]
          +0.134*[#   8]
    |psi|^2 = 0.807
==== e(   7) =     9.77597 eV ==== 
     psi = 0.165*[#   2]+0.165*[#   3]+0.165*[#   4]+0.165*[#   6]+0.165*[#   7]
          +0.165*[#   8]+0.020*[#   1]+0.020*[#   5]
    |psi|^2 = 1.028
==== e(   8) =    13.06605 eV ==== 
     psi = 0.095*[#   1]+0.095*[#   5]+0.041*[#   2]+0.041*[#   3]+0.041*[#   4]
          +0.041*[#   6]+0.041*[#   7]+0.041*[#   8]
    |psi|^2 = 0.433

 k =  -0.0707106781 -0.2121320344  0.2121320344
==== e(   1) =    -5.01936 eV ==== 
     psi = 0.380*[#   1]+0.380*[#   5]+0.039*[#   2]+0.039*[#   3]+0.039*[#   4]
          +0.039*[#   6]+0.039*[#   7]+0.039*[#   8]
    |psi|^2 = 0.996
==== e(   2) =     2.48387 eV ==== 
     psi = 0.148*[#   1]+0.148*[#   5]+0.080*[#   2]+0.080*[#   3]+0.080*[#   4]
          +0.080*[#   6]+0.080*[#   7]+0.080*[#   8]
    |psi|^2 = 0.774
==== e(   3) =     4.35241 eV ==== 
     psi = 0.158*[#   2]+0.158*[#   3]+0.158*[#   4]+0.158*[#   6]+0.158*[#   7]
          +0.158*[#   8]+0.039*[#   1]+0.039*[#   5]
    |psi|^2 = 1.026
==== e(   4) =     5.64056 eV ==== 
     psi = 0.121*[#   2]+0.121*[#   3]+0.121*[#   4]+0.121*[#   6]+0.121*[#   7]
          +0.121*[#   8]
    |psi|^2 = 0.726
==== e(   5) =     8.81022 eV ==== 
     psi = 0.190*[#   1]+0.190*[#   5]+0.092*[#   2]+0.092*[#   3]+0.092*[#   4]
          +0.092*[#   6]+0.092*[#   7]+0.092*[#   8]
    |psi|^2 = 0.935
==== e(   6) =     9.47154 eV ==== 
     psi = 0.153*[#   2]+0.153*[#   3]+0.153*[#   4]+0.153*[#   6]+0.153*[#   7]
          +0.153*[#   8]
    |psi|^2 = 0.916
==== e(   7) =     9.80068 eV ==== 
     psi = 0.186*[#   2]+0.186*[#   3]+0.186*[#   4]+0.186*[#   6]+0.186*[#   7]
          +0.186*[#   8]+0.031*[#   1]+0.031*[#   5]
    |psi|^2 = 1.179
==== e(   8) =    12.02631 eV ==== 
     psi = 0.137*[#   1]+0.137*[#   5]+0.037*[#   2]+0.037*[#   3]+0.037*[#   4]
          +0.037*[#   6]+0.037*[#   7]+0.037*[#   8]
    |psi|^2 = 0.496

 k =   0.0000000000 -0.1414213562  0.1414213562
==== e(   1) =    -5.48657 eV ==== 
     psi = 0.427*[#   1]+0.427*[#   5]+0.024*[#   2]+0.024*[#   3]+0.024*[#   4]
          +0.024*[#   6]+0.024*[#   7]+0.024*[#   8]
    |psi|^2 = 0.996
==== e(   2) =     4.10225 eV ==== 
     psi = 0.117*[#   1]+0.117*[#   5]+0.076*[#   2]+0.076*[#   3]+0.076*[#   4]
          +0.076*[#   6]+0.076*[#   7]+0.076*[#   8]
    |psi|^2 = 0.688
==== e(   3) =     4.96556 eV ==== 
     psi = 0.181*[#   2]+0.181*[#   3]+0.181*[#   4]+0.181*[#   6]+0.181*[#   7]
          +0.181*[#   8]+0.019*[#   1]+0.019*[#   5]
    |psi|^2 = 1.127
==== e(   4) =     5.96962 eV ==== 
     psi = 0.108*[#   2]+0.108*[#   3]+0.108*[#   4]+0.108*[#   6]+0.108*[#   7]
          +0.108*[#   8]
    |psi|^2 = 0.646
==== e(   5) =     9.02323 eV ==== 
     psi = 0.160*[#   2]+0.160*[#   3]+0.160*[#   4]+0.160*[#   6]+0.160*[#   7]
          +0.160*[#   8]
    |psi|^2 = 0.958
==== e(   6) =     9.07901 eV ==== 
     psi = 0.144*[#   1]+0.144*[#   5]+0.112*[#   2]+0.112*[#   3]+0.112*[#   4]
          +0.112*[#   6]+0.112*[#   7]+0.112*[#   8]
    |psi|^2 = 0.956
==== e(   7) =     9.20240 eV ==== 
     psi = 0.094*[#   2]+0.094*[#   3]+0.094*[#   4]+0.094*[#   6]+0.094*[#   7]
          +0.094*[#   8]+0.048*[#   1]+0.048*[#   5]
    |psi|^2 = 0.661
==== e(   8) =    11.28181 eV ==== 
     psi = 0.217*[#   1]+0.217*[#   5]+0.160*[#   2]+0.160*[#   3]+0.160*[#   4]
          +0.160*[#   6]+0.160*[#   7]+0.160*[#   8]
    |psi|^2 = 1.391

 k =   0.2828427125  0.0000000000  0.0000000000
==== e(   1) =    -5.13797 eV ==== 
     psi = 0.384*[#   1]+0.384*[#   5]+0.038*[#   2]+0.038*[#   3]+0.038*[#   4]
          +0.038*[#   6]+0.038*[#   7]+0.038*[#   8]
    |psi|^2 = 0.996
==== e(   2) =     3.51542 eV ==== 
     psi = 0.191*[#   1]+0.191*[#   5]+0.138*[#   2]+0.138*[#   3]+0.138*[#   4]
          +0.138*[#   6]+0.138*[#   7]+0.138*[#   8]
    |psi|^2 = 1.210
==== e(   3) =     4.64282 eV ==== 
     psi = 0.082*[#   2]+0.082*[#   3]+0.082*[#   4]+0.082*[#   6]+0.082*[#   7]
          +0.082*[#   8]
    |psi|^2 = 0.493
==== e(   4) =     4.64282 eV ==== 
     psi = 0.182*[#   2]+0.182*[#   3]+0.182*[#   4]+0.182*[#   6]+0.182*[#   7]
          +0.182*[#   8]
    |psi|^2 = 1.093
==== e(   5) =     7.52352 eV ==== 
     psi = 0.123*[#   2]+0.123*[#   3]+0.123*[#   4]+0.123*[#   6]+0.123*[#   7]
          +0.123*[#   8]+0.108*[#   1]+0.108*[#   5]
    |psi|^2 = 0.955
==== e(   6) =     9.94123 eV ==== 
     psi = 0.164*[#   2]+0.164*[#   3]+0.164*[#   4]+0.164*[#   6]+0.164*[#   7]
          +0.164*[#   8]+0.145*[#   1]+0.145*[#   5]
    |psi|^2 = 1.273
==== e(   7) =    11.00443 eV ==== 
     psi = 0.075*[#   2]+0.075*[#   3]+0.075*[#   4]+0.075*[#   6]+0.075*[#   7]
          +0.075*[#   8]
    |psi|^2 = 0.449
==== e(   8) =    11.00443 eV ==== 
     psi = 0.116*[#   2]+0.116*[#   3]+0.116*[#   4]+0.116*[#   6]+0.116*[#   7]
          +0.116*[#   8]
    |psi|^2 = 0.694

 k =   0.3535533906  0.0707106781 -0.0707106781
==== e(   1) =    -4.67109 eV ==== 
     psi = 0.353*[#   1]+0.353*[#   5]+0.048*[#   2]+0.048*[#   3]+0.048*[#   4]
          +0.048*[#   6]+0.048*[#   7]+0.048*[#   8]
    |psi|^2 = 0.996
==== e(   2) =     2.26474 eV ==== 
     psi = 0.197*[#   1]+0.197*[#   5]+0.128*[#   2]+0.128*[#   3]+0.128*[#   4]
          +0.128*[#   6]+0.128*[#   7]+0.128*[#   8]
    |psi|^2 = 1.163
==== e(   3) =     4.12763 eV ==== 
     psi = 0.111*[#   2]+0.111*[#   3]+0.111*[#   4]+0.111*[#   6]+0.111*[#   7]
          +0.111*[#   8]+0.035*[#   1]+0.035*[#   5]
    |psi|^2 = 0.738
==== e(   4) =     4.29344 eV ==== 
     psi = 0.150*[#   2]+0.150*[#   3]+0.150*[#   4]+0.150*[#   6]+0.150*[#   7]
          +0.150*[#   8]
    |psi|^2 = 0.897
==== e(   5) =     7.62105 eV ==== 
     psi = 0.118*[#   2]+0.118*[#   3]+0.118*[#   4]+0.118*[#   6]+0.118*[#   7]
          +0.118*[#   8]+0.112*[#   1]+0.112*[#   5]
    |psi|^2 = 0.932
==== e(   6) =     9.50139 eV ==== 
     psi = 0.147*[#   2]+0.147*[#   3]+0.147*[#   4]+0.147*[#   6]+0.147*[#   7]
          +0.147*[#   8]+0.125*[#   1]+0.125*[#   5]
    |psi|^2 = 1.133
==== e(   7) =    11.25418 eV ==== 
     psi = 0.065*[#   2]+0.065*[#   3]+0.065*[#   4]+0.065*[#   6]+0.065*[#   7]
          +0.065*[#   8]+0.038*[#   1]+0.038*[#   5]
    |psi|^2 = 0.465
==== e(   8) =    11.59189 eV ==== 
     psi = 0.109*[#   2]+0.109*[#   3]+0.109*[#   4]+0.109*[#   6]+0.109*[#   7]
          +0.109*[#   8]
    |psi|^2 = 0.653

 k =   0.4242640687  0.1414213562 -0.1414213562
==== e(   1) =    -3.99318 eV ==== 
     psi = 0.335*[#   1]+0.335*[#   5]+0.054*[#   2]+0.054*[#   3]+0.054*[#   4]
          +0.054*[#   6]+0.054*[#   7]+0.054*[#   8]
    |psi|^2 = 0.995
==== e(   2) =     0.82012 eV ==== 
     psi = 0.196*[#   1]+0.196*[#   5]+0.118*[#   2]+0.118*[#   3]+0.118*[#   4]
          +0.118*[#   6]+0.118*[#   7]+0.118*[#   8]
    |psi|^2 = 1.097
==== e(   3) =     3.49168 eV ==== 
     psi = 0.133*[#   2]+0.133*[#   3]+0.133*[#   4]+0.133*[#   6]+0.133*[#   7]
          +0.133*[#   8]+0.059*[#   1]+0.059*[#   5]
    |psi|^2 = 0.918
==== e(   4) =     4.13419 eV ==== 
     psi = 0.127*[#   2]+0.127*[#   3]+0.127*[#   4]+0.127*[#   6]+0.127*[#   7]
          +0.127*[#   8]
    |psi|^2 = 0.760
==== e(   5) =     7.82919 eV ==== 
     psi = 0.117*[#   1]+0.117*[#   5]+0.103*[#   2]+0.103*[#   3]+0.103*[#   4]
          +0.103*[#   6]+0.103*[#   7]+0.103*[#   8]
    |psi|^2 = 0.852
==== e(   6) =    10.14333 eV ==== 
     psi = 0.141*[#   2]+0.141*[#   3]+0.141*[#   4]+0.141*[#   6]+0.141*[#   7]
          +0.141*[#   8]+0.096*[#   1]+0.096*[#   5]
    |psi|^2 = 1.040
==== e(   7) =    11.02391 eV ==== 
     psi = 0.088*[#   1]+0.088*[#   5]+0.066*[#   2]+0.066*[#   3]+0.066*[#   4]
          +0.066*[#   6]+0.066*[#   7]+0.066*[#   8]
    |psi|^2 = 0.571
==== e(   8) =    11.53450 eV ==== 
     psi = 0.101*[#   2]+0.101*[#   3]+0.101*[#   4]+0.101*[#   6]+0.101*[#   7]
          +0.101*[#   8]
    |psi|^2 = 0.603

 k =  -0.2121320344 -0.4949747468  0.4949747468
==== e(   1) =    -3.25668 eV ==== 
     psi = 0.343*[#   1]+0.343*[#   5]+0.052*[#   2]+0.052*[#   3]+0.052*[#   4]
          +0.052*[#   6]+0.052*[#   7]+0.052*[#   8]
    |psi|^2 = 0.996
==== e(   2) =    -0.37287 eV ==== 
     psi = 0.178*[#   1]+0.178*[#   5]+0.110*[#   2]+0.110*[#   3]+0.110*[#   4]
          +0.110*[#   6]+0.110*[#   7]+0.110*[#   8]
    |psi|^2 = 1.013
==== e(   3) =     2.97777 eV ==== 
     psi = 0.144*[#   2]+0.144*[#   3]+0.144*[#   4]+0.144*[#   6]+0.144*[#   7]
          +0.144*[#   8]+0.064*[#   1]+0.064*[#   5]
    |psi|^2 = 0.989
==== e(   4) =     4.17973 eV ==== 
     psi = 0.121*[#   2]+0.121*[#   3]+0.121*[#   4]+0.121*[#   6]+0.121*[#   7]
          +0.121*[#   8]
    |psi|^2 = 0.723
==== e(   5) =     7.89125 eV ==== 
     psi = 0.121*[#   1]+0.121*[#   5]+0.097*[#   2]+0.097*[#   3]+0.097*[#   4]
          +0.097*[#   6]+0.097*[#   7]+0.097*[#   8]
    |psi|^2 = 0.824
==== e(   6) =    10.77791 eV ==== 
     psi = 0.135*[#   2]+0.135*[#   3]+0.135*[#   4]+0.135*[#   6]+0.135*[#   7]
          +0.135*[#   8]+0.090*[#   1]+0.090*[#   5]
    |psi|^2 = 0.992
==== e(   7) =    11.19786 eV ==== 
     psi = 0.096*[#   2]+0.096*[#   3]+0.096*[#   4]+0.096*[#   6]+0.096*[#   7]
          +0.096*[#   8]
    |psi|^2 = 0.574
==== e(   8) =    11.71936 eV ==== 
     psi = 0.094*[#   1]+0.094*[#   5]+0.062*[#   2]+0.062*[#   3]+0.062*[#   4]
          +0.062*[#   6]+0.062*[#   7]+0.062*[#   8]
    |psi|^2 = 0.562

 k =  -0.1414213562 -0.4242640687  0.4242640687
==== e(   1) =    -3.10144 eV ==== 
     psi = 0.353*[#   1]+0.353*[#   5]+0.049*[#   2]+0.049*[#   3]+0.049*[#   4]
          +0.049*[#   6]+0.049*[#   7]+0.049*[#   8]
    |psi|^2 = 0.997
==== e(   2) =    -0.58393 eV ==== 
     psi = 0.167*[#   1]+0.167*[#   5]+0.096*[#   2]+0.096*[#   3]+0.096*[#   4]
          +0.096*[#   6]+0.096*[#   7]+0.096*[#   8]
    |psi|^2 = 0.909
==== e(   3) =     2.67594 eV ==== 
     psi = 0.142*[#   2]+0.142*[#   3]+0.142*[#   4]+0.142*[#   6]+0.142*[#   7]
          +0.142*[#   8]+0.062*[#   1]+0.062*[#   5]
    |psi|^2 = 0.975
==== e(   4) =     4.42064 eV ==== 
     psi = 0.131*[#   2]+0.131*[#   3]+0.131*[#   4]+0.131*[#   6]+0.131*[#   7]
          +0.131*[#   8]
    |psi|^2 = 0.785
==== e(   5) =     8.11207 eV ==== 
     psi = 0.117*[#   1]+0.117*[#   5]+0.099*[#   2]+0.099*[#   3]+0.099*[#   4]
          +0.099*[#   6]+0.099*[#   7]+0.099*[#   8]
    |psi|^2 = 0.828
==== e(   6) =    10.67804 eV ==== 
     psi = 0.142*[#   2]+0.142*[#   3]+0.142*[#   4]+0.142*[#   6]+0.142*[#   7]
          +0.142*[#   8]+0.109*[#   1]+0.109*[#   5]
    |psi|^2 = 1.072
==== e(   7) =    10.89289 eV ==== 
     psi = 0.090*[#   2]+0.090*[#   3]+0.090*[#   4]+0.090*[#   6]+0.090*[#   7]
          +0.090*[#   8]
    |psi|^2 = 0.540
==== e(   8) =    13.63526 eV ==== 
     psi = 0.053*[#   2]+0.053*[#   3]+0.053*[#   4]+0.053*[#   6]+0.053*[#   7]
          +0.053*[#   8]+0.051*[#   1]+0.051*[#   5]
    |psi|^2 = 0.421

 k =  -0.0707106781 -0.3535533906  0.3535533906
==== e(   1) =    -3.76112 eV ==== 
     psi = 0.339*[#   1]+0.339*[#   5]+0.053*[#   2]+0.053*[#   3]+0.053*[#   4]
          +0.053*[#   6]+0.053*[#   7]+0.053*[#   8]
    |psi|^2 = 0.996
==== e(   2) =     0.41177 eV ==== 
     psi = 0.188*[#   1]+0.188*[#   5]+0.082*[#   2]+0.082*[#   3]+0.082*[#   4]
          +0.082*[#   6]+0.082*[#   7]+0.082*[#   8]
    |psi|^2 = 0.869
==== e(   3) =     2.65193 eV ==== 
     psi = 0.140*[#   2]+0.140*[#   3]+0.140*[#   4]+0.140*[#   6]+0.140*[#   7]
          +0.140*[#   8]+0.054*[#   1]+0.054*[#   5]
    |psi|^2 = 0.950
==== e(   4) =     4.82165 eV ==== 
     psi = 0.131*[#   2]+0.131*[#   3]+0.131*[#   4]+0.131*[#   6]+0.131*[#   7]
          +0.131*[#   8]
    |psi|^2 = 0.786
==== e(   5) =     8.52077 eV ==== 
     psi = 0.112*[#   1]+0.112*[#   5]+0.103*[#   2]+0.103*[#   3]+0.103*[#   4]
          +0.103*[#   6]+0.103*[#   7]+0.103*[#   8]
    |psi|^2 = 0.842
==== e(   6) =    10.62614 eV ==== 
     psi = 0.166*[#   2]+0.166*[#   3]+0.166*[#   4]+0.166*[#   6]+0.166*[#   7]
          +0.166*[#   8]
    |psi|^2 = 0.996
==== e(   7) =    10.68238 eV ==== 
     psi = 0.129*[#   2]+0.129*[#   3]+0.129*[#   4]+0.129*[#   6]+0.129*[#   7]
          +0.129*[#   8]+0.099*[#   1]+0.099*[#   5]
    |psi|^2 = 0.972
==== e(   8) =    12.77215 eV ==== 
     psi = 0.117*[#   1]+0.117*[#   5]+0.039*[#   2]+0.039*[#   3]+0.039*[#   4]
          +0.039*[#   6]+0.039*[#   7]+0.039*[#   8]
    |psi|^2 = 0.467

 k =   0.0000000000 -0.2828427125  0.2828427125
==== e(   1) =    -4.48243 eV ==== 
     psi = 0.352*[#   1]+0.352*[#   5]+0.049*[#   2]+0.049*[#   3]+0.049*[#   4]
          +0.049*[#   6]+0.049*[#   7]+0.049*[#   8]
    |psi|^2 = 0.996
==== e(   2) =     1.65650 eV ==== 
     psi = 0.186*[#   1]+0.186*[#   5]+0.074*[#   2]+0.074*[#   3]+0.074*[#   4]
          +0.074*[#   6]+0.074*[#   7]+0.074*[#   8]
    |psi|^2 = 0.817
==== e(   3) =     3.10506 eV ==== 
     psi = 0.148*[#   2]+0.148*[#   3]+0.148*[#   4]+0.148*[#   6]+0.148*[#   7]
          +0.148*[#   8]+0.044*[#   1]+0.044*[#   5]
    |psi|^2 = 0.979
==== e(   4) =     5.29652 eV ==== 
     psi = 0.123*[#   2]+0.123*[#   3]+0.123*[#   4]+0.123*[#   6]+0.123*[#   7]
          +0.123*[#   8]
    |psi|^2 = 0.737
==== e(   5) =     8.97253 eV ==== 
     psi = 0.118*[#   1]+0.118*[#   5]+0.108*[#   2]+0.108*[#   3]+0.108*[#   4]
          +0.108*[#   6]+0.108*[#   7]+0.108*[#   8]
    |psi|^2 = 0.882
==== e(   6) =    10.09354 eV ==== 
     psi = 0.181*[#   2]+0.181*[#   3]+0.181*[#   4]+0.181*[#   6]+0.181*[#   7]
          +0.181*[#   8]
    |psi|^2 = 1.089
==== e(   7) =    10.38741 eV ==== 
     psi = 0.161*[#   2]+0.161*[#   3]+0.161*[#   4]+0.161*[#   6]+0.161*[#   7]
          +0.161*[#   8]+0.079*[#   1]+0.079*[#   5]
    |psi|^2 = 1.122
==== e(   8) =    11.79348 eV ==== 
     psi = 0.143*[#   1]+0.143*[#   5]+0.030*[#   2]+0.030*[#   3]+0.030*[#   4]
          +0.030*[#   6]+0.030*[#   7]+0.030*[#   8]
    |psi|^2 = 0.464

 k =   0.4242640687  0.0000000000  0.0000000000
==== e(   1) =    -4.28238 eV ==== 
     psi = 0.332*[#   1]+0.332*[#   5]+0.055*[#   2]+0.055*[#   3]+0.055*[#   4]
          +0.055*[#   6]+0.055*[#   7]+0.055*[#   8]
    |psi|^2 = 0.995
==== e(   2) =     1.72424 eV ==== 
     psi = 0.235*[#   1]+0.235*[#   5]+0.142*[#   2]+0.142*[#   3]+0.142*[#   4]
          +0.142*[#   6]+0.142*[#   7]+0.142*[#   8]
    |psi|^2 = 1.320
==== e(   3) =     3.89853 eV ==== 
     psi = 0.083*[#   2]+0.083*[#   3]+0.083*[#   4]+0.083*[#   6]+0.083*[#   7]
          +0.083*[#   8]
    |psi|^2 = 0.496
==== e(   4) =     3.89853 eV ==== 
     psi = 0.169*[#   2]+0.169*[#   3]+0.169*[#   4]+0.169*[#   6]+0.169*[#   7]
          +0.169*[#   8]
    |psi|^2 = 1.015
==== e(   5) =     6.90899 eV ==== 
     psi = 0.153*[#   1]+0.153*[#   5]+0.105*[#   2]+0.105*[#   3]+0.105*[#   4]
          +0.105*[#   6]+0.105*[#   7]+0.105*[#   8]
    |psi|^2 = 0.938
==== e(   6) =     8.44935 eV ==== 
     psi = 0.154*[#   2]+0.154*[#   3]+0.154*[#   4]+0.154*[#   6]+0.154*[#   7]
          +0.154*[#   8]+0.127*[#   1]+0.127*[#   5]
    |psi|^2 = 1.178
==== e(   7) =    12.75761 eV ==== 
     psi = 0.069*[#   2]+0.069*[#   3]+0.069*[#   4]+0.069*[#   6]+0.069*[#   7]
          +0.069*[#   8]
    |psi|^2 = 0.412
==== e(   8) =    12.75761 eV ==== 
     psi = 0.117*[#   2]+0.117*[#   3]+0.117*[#   4]+0.117*[#   6]+0.117*[#   7]
          +0.117*[#   8]
    |psi|^2 = 0.705

 k =   0.4949747468  0.0707106781 -0.0707106781
==== e(   1) =    -3.66779 eV ==== 
     psi = 0.316*[#   1]+0.316*[#   5]+0.061*[#   2]+0.061*[#   3]+0.061*[#   4]
          +0.061*[#   6]+0.061*[#   7]+0.061*[#   8]
    |psi|^2 = 0.995
==== e(   2) =     0.71752 eV ==== 
     psi = 0.247*[#   1]+0.247*[#   5]+0.136*[#   2]+0.136*[#   3]+0.136*[#   4]
          +0.136*[#   6]+0.136*[#   7]+0.136*[#   8]
    |psi|^2 = 1.310
==== e(   3) =     3.25886 eV ==== 
     psi = 0.096*[#   2]+0.096*[#   3]+0.096*[#   4]+0.096*[#   6]+0.096*[#   7]
          +0.096*[#   8]+0.015*[#   1]+0.015*[#   5]
    |psi|^2 = 0.607
==== e(   4) =     3.69332 eV ==== 
     psi = 0.155*[#   2]+0.155*[#   3]+0.155*[#   4]+0.155*[#   6]+0.155*[#   7]
          +0.155*[#   8]
    |psi|^2 = 0.930
==== e(   5) =     7.09673 eV ==== 
     psi = 0.145*[#   1]+0.145*[#   5]+0.101*[#   2]+0.101*[#   3]+0.101*[#   4]
          +0.101*[#   6]+0.101*[#   7]+0.101*[#   8]
    |psi|^2 = 0.895
==== e(   6) =     8.28500 eV ==== 
     psi = 0.149*[#   2]+0.149*[#   3]+0.149*[#   4]+0.149*[#   6]+0.149*[#   7]
          +0.149*[#   8]+0.129*[#   1]+0.129*[#   5]
    |psi|^2 = 1.153
==== e(   7) =    13.04889 eV ==== 
     psi = 0.062*[#   2]+0.062*[#   3]+0.062*[#   4]+0.062*[#   6]+0.062*[#   7]
          +0.062*[#   8]+0.037*[#   1]+0.037*[#   5]
    |psi|^2 = 0.449
==== e(   8) =    13.17095 eV ==== 
     psi = 0.112*[#   2]+0.112*[#   3]+0.112*[#   4]+0.112*[#   6]+0.112*[#   7]
          +0.112*[#   8]
    |psi|^2 = 0.672

 k =  -0.1414213562 -0.5656854249  0.5656854249
==== e(   1) =    -2.91360 eV ==== 
     psi = 0.314*[#   1]+0.314*[#   5]+0.061*[#   2]+0.061*[#   3]+0.061*[#   4]
          +0.061*[#   6]+0.061*[#   7]+0.061*[#   8]
    |psi|^2 = 0.995
==== e(   2) =    -0.29201 eV ==== 
     psi = 0.249*[#   1]+0.249*[#   5]+0.123*[#   2]+0.123*[#   3]+0.123*[#   4]
          +0.123*[#   6]+0.123*[#   7]+0.123*[#   8]
    |psi|^2 = 1.236
==== e(   3) =     2.41584 eV ==== 
     psi = 0.116*[#   2]+0.116*[#   3]+0.116*[#   4]+0.116*[#   6]+0.116*[#   7]
          +0.116*[#   8]+0.021*[#   1]+0.021*[#   5]
    |psi|^2 = 0.739
==== e(   4) =     3.70075 eV ==== 
     psi = 0.138*[#   2]+0.138*[#   3]+0.138*[#   4]+0.138*[#   6]+0.138*[#   7]
          +0.138*[#   8]
    |psi|^2 = 0.825
==== e(   5) =     7.26897 eV ==== 
     psi = 0.137*[#   1]+0.137*[#   5]+0.093*[#   2]+0.093*[#   3]+0.093*[#   4]
          +0.093*[#   6]+0.093*[#   7]+0.093*[#   8]
    |psi|^2 = 0.831
==== e(   6) =     9.43779 eV ==== 
     psi = 0.146*[#   2]+0.146*[#   3]+0.146*[#   4]+0.146*[#   6]+0.146*[#   7]
          +0.146*[#   8]+0.105*[#   1]+0.105*[#   5]
    |psi|^2 = 1.086
==== e(   7) =    12.85969 eV ==== 
     psi = 0.077*[#   1]+0.077*[#   5]+0.061*[#   2]+0.061*[#   3]+0.061*[#   4]
          +0.061*[#   6]+0.061*[#   7]+0.061*[#   8]
    |psi|^2 = 0.518
==== e(   8) =    12.91196 eV ==== 
     psi = 0.103*[#   2]+0.103*[#   3]+0.103*[#   4]+0.103*[#   6]+0.103*[#   7]
          +0.103*[#   8]
    |psi|^2 = 0.618

 k =  -0.0707106781 -0.4949747468  0.4949747468
==== e(   1) =    -2.48892 eV ==== 
     psi = 0.334*[#   1]+0.334*[#   5]+0.055*[#   2]+0.055*[#   3]+0.055*[#   4]
          +0.055*[#   6]+0.055*[#   7]+0.055*[#   8]
    |psi|^2 = 0.996
==== e(   2) =    -0.77285 eV ==== 
     psi = 0.231*[#   1]+0.231*[#   5]+0.105*[#   2]+0.105*[#   3]+0.105*[#   4]
          +0.105*[#   6]+0.105*[#   7]+0.105*[#   8]
    |psi|^2 = 1.091
==== e(   3) =     1.85492 eV ==== 
     psi = 0.128*[#   2]+0.128*[#   3]+0.128*[#   4]+0.128*[#   6]+0.128*[#   7]
          +0.128*[#   8]+0.017*[#   1]+0.017*[#   5]
    |psi|^2 = 0.803
==== e(   4) =     3.91819 eV ==== 
     psi = 0.137*[#   2]+0.137*[#   3]+0.137*[#   4]+0.137*[#   6]+0.137*[#   7]
          +0.137*[#   8]
    |psi|^2 = 0.825
==== e(   5) =     7.50434 eV ==== 
     psi = 0.123*[#   1]+0.123*[#   5]+0.097*[#   2]+0.097*[#   3]+0.097*[#   4]
          +0.097*[#   6]+0.097*[#   7]+0.097*[#   8]
    |psi|^2 = 0.826
==== e(   6) =    11.24404 eV ==== 
     psi = 0.125*[#   2]+0.125*[#   3]+0.125*[#   4]+0.125*[#   6]+0.125*[#   7]
          +0.125*[#   8]+0.057*[#   1]+0.057*[#   5]
    |psi|^2 = 0.865
==== e(   7) =    12.51097 eV ==== 
     psi = 0.066*[#   2]+0.066*[#   3]+0.066*[#   4]+0.066*[#   6]+0.066*[#   7]
          +0.066*[#   8]
    |psi|^2 = 0.394
==== e(   8) =    12.69955 eV ==== 
     psi = 0.113*[#   1]+0.113*[#   5]+0.086*[#   2]+0.086*[#   3]+0.086*[#   4]
          +0.086*[#   6]+0.086*[#   7]+0.086*[#   8]
    |psi|^2 = 0.741

 k =  -0.0000000000 -0.4242640687  0.4242640687
==== e(   1) =    -3.03100 eV ==== 
     psi = 0.331*[#   1]+0.331*[#   5]+0.056*[#   2]+0.056*[#   3]+0.056*[#   4]
          +0.056*[#   6]+0.056*[#   7]+0.056*[#   8]
    |psi|^2 = 0.996
==== e(   2) =    -0.18049 eV ==== 
     psi = 0.230*[#   1]+0.230*[#   5]+0.086*[#   2]+0.086*[#   3]+0.086*[#   4]
          +0.086*[#   6]+0.086*[#   7]+0.086*[#   8]
    |psi|^2 = 0.974
==== e(   3) =     1.82754 eV ==== 
     psi = 0.133*[#   2]+0.133*[#   3]+0.133*[#   4]+0.133*[#   6]+0.133*[#   7]
          +0.133*[#   8]+0.021*[#   1]+0.021*[#   5]
    |psi|^2 = 0.841
==== e(   4) =     4.31775 eV ==== 
     psi = 0.137*[#   2]+0.137*[#   3]+0.137*[#   4]+0.137*[#   6]+0.137*[#   7]
          +0.137*[#   8]
    |psi|^2 = 0.822
==== e(   5) =     7.95743 eV ==== 
     psi = 0.106*[#   1]+0.106*[#   5]+0.102*[#   2]+0.102*[#   3]+0.102*[#   4]
          +0.102*[#   6]+0.102*[#   7]+0.102*[#   8]
    |psi|^2 = 0.826
==== e(   6) =    11.84840 eV ==== 
     psi = 0.166*[#   2]+0.166*[#   3]+0.166*[#   4]+0.166*[#   6]+0.166*[#   7]
          +0.166*[#   8]
    |psi|^2 = 0.999
==== e(   7) =    12.11062 eV ==== 
     psi = 0.099*[#   2]+0.099*[#   3]+0.099*[#   4]+0.099*[#   6]+0.099*[#   7]
          +0.099*[#   8]+0.038*[#   1]+0.038*[#   5]
    |psi|^2 = 0.671
==== e(   8) =    12.91305 eV ==== 
     psi = 0.139*[#   1]+0.139*[#   5]+0.040*[#   2]+0.040*[#   3]+0.040*[#   4]
          +0.040*[#   6]+0.040*[#   7]+0.040*[#   8]
    |psi|^2 = 0.519

 k =   0.5656854249  0.0000000000  0.0000000000
==== e(   1) =    -3.11680 eV ==== 
     psi = 0.301*[#   1]+0.301*[#   5]+0.065*[#   2]+0.065*[#   3]+0.065*[#   4]
          +0.065*[#   6]+0.065*[#   7]+0.065*[#   8]
    |psi|^2 = 0.994
==== e(   2) =    -0.03953 eV ==== 
     psi = 0.261*[#   1]+0.261*[#   5]+0.144*[#   2]+0.144*[#   3]+0.144*[#   4]
          +0.144*[#   6]+0.144*[#   7]+0.144*[#   8]
    |psi|^2 = 1.384
==== e(   3) =     3.43215 eV ==== 
     psi = 0.083*[#   2]+0.083*[#   3]+0.083*[#   4]+0.083*[#   6]+0.083*[#   7]
          +0.083*[#   8]
    |psi|^2 = 0.497
==== e(   4) =     3.43215 eV ==== 
     psi = 0.161*[#   2]+0.161*[#   3]+0.161*[#   4]+0.161*[#   6]+0.161*[#   7]
          +0.161*[#   8]
    |psi|^2 = 0.967
==== e(   5) =     6.61844 eV ==== 
     psi = 0.172*[#   1]+0.172*[#   5]+0.093*[#   2]+0.093*[#   3]+0.093*[#   4]
          +0.093*[#   6]+0.093*[#   7]+0.093*[#   8]
    |psi|^2 = 0.903
==== e(   6) =     7.34093 eV ==== 
     psi = 0.160*[#   2]+0.160*[#   3]+0.160*[#   4]+0.160*[#   6]+0.160*[#   7]
          +0.160*[#   8]+0.152*[#   1]+0.152*[#   5]
    |psi|^2 = 1.261
==== e(   7) =    14.60692 eV ==== 
     psi = 0.061*[#   2]+0.061*[#   3]+0.061*[#   4]+0.061*[#   6]+0.061*[#   7]
          +0.061*[#   8]
    |psi|^2 = 0.366
==== e(   8) =    14.60693 eV ==== 
     psi = 0.127*[#   2]+0.127*[#   3]+0.127*[#   4]+0.127*[#   6]+0.127*[#   7]
          +0.127*[#   8]
    |psi|^2 = 0.764

 k =  -0.0707106781 -0.6363961031  0.6363961031
==== e(   1) =    -2.38542 eV ==== 
     psi = 0.294*[#   1]+0.294*[#   5]+0.068*[#   2]+0.068*[#   3]+0.068*[#   4]
          +0.068*[#   6]+0.068*[#   7]+0.068*[#   8]
    |psi|^2 = 0.994
==== e(   2) =    -0.88083 eV ==== 
     psi = 0.274*[#   1]+0.274*[#   5]+0.138*[#   2]+0.138*[#   3]+0.138*[#   4]
          +0.138*[#   6]+0.138*[#   7]+0.138*[#   8]
    |psi|^2 = 1.378
==== e(   3) =     2.83055 eV ==== 
     psi = 0.091*[#   2]+0.091*[#   3]+0.091*[#   4]+0.091*[#   6]+0.091*[#   7]
          +0.091*[#   8]+0.008*[#   1]+0.008*[#   5]
    |psi|^2 = 0.563
==== e(   4) =     3.38368 eV ==== 
     psi = 0.154*[#   2]+0.154*[#   3]+0.154*[#   4]+0.154*[#   6]+0.154*[#   7]
          +0.154*[#   8]
    |psi|^2 = 0.922
==== e(   5) =     6.85079 eV ==== 
     psi = 0.161*[#   1]+0.161*[#   5]+0.087*[#   2]+0.087*[#   3]+0.087*[#   4]
          +0.087*[#   6]+0.087*[#   7]+0.087*[#   8]
    |psi|^2 = 0.843
==== e(   6) =     7.61830 eV ==== 
     psi = 0.157*[#   2]+0.157*[#   3]+0.157*[#   4]+0.157*[#   6]+0.157*[#   7]
          +0.157*[#   8]+0.145*[#   1]+0.145*[#   5]
    |psi|^2 = 1.234
==== e(   7) =    14.84646 eV ==== 
     psi = 0.061*[#   2]+0.061*[#   3]+0.061*[#   4]+0.061*[#   6]+0.061*[#   7]
          +0.061*[#   8]
    |psi|^2 = 0.368
==== e(   8) =    14.93891 eV ==== 
     psi = 0.117*[#   2]+0.117*[#   3]+0.117*[#   4]+0.117*[#   6]+0.117*[#   7]
          +0.117*[#   8]+0.027*[#   1]+0.027*[#   5]
    |psi|^2 = 0.756

 k =   0.0000000000 -0.5656854249  0.5656854249
==== e(   1) =    -1.90355 eV ==== 
     psi = 0.315*[#   1]+0.315*[#   5]+0.061*[#   2]+0.061*[#   3]+0.061*[#   4]
          +0.061*[#   6]+0.061*[#   7]+0.061*[#   8]
    |psi|^2 = 0.995
==== e(   2) =    -1.30408 eV ==== 
     psi = 0.265*[#   1]+0.265*[#   5]+0.123*[#   2]+0.123*[#   3]+0.123*[#   4]
          +0.123*[#   6]+0.123*[#   7]+0.123*[#   8]
    |psi|^2 = 1.268
==== e(   3) =     2.03092 eV ==== 
     psi = 0.107*[#   2]+0.107*[#   3]+0.107*[#   4]+0.107*[#   6]+0.107*[#   7]
          +0.107*[#   8]+0.002*[#   1]+0.002*[#   5]
    |psi|^2 = 0.646
==== e(   4) =     3.55213 eV ==== 
     psi = 0.149*[#   2]+0.149*[#   3]+0.149*[#   4]+0.149*[#   6]+0.149*[#   7]
          +0.149*[#   8]
    |psi|^2 = 0.896
==== e(   5) =     7.06486 eV ==== 
     psi = 0.145*[#   1]+0.145*[#   5]+0.090*[#   2]+0.090*[#   3]+0.090*[#   4]
          +0.090*[#   6]+0.090*[#   7]+0.090*[#   8]
    |psi|^2 = 0.830
==== e(   6) =     9.21016 eV ==== 
     psi = 0.149*[#   2]+0.149*[#   3]+0.149*[#   4]+0.149*[#   6]+0.149*[#   7]
          +0.149*[#   8]+0.112*[#   1]+0.112*[#   5]
    |psi|^2 = 1.119
==== e(   7) =    14.19126 eV ==== 
     psi = 0.077*[#   2]+0.077*[#   3]+0.077*[#   4]+0.077*[#   6]+0.077*[#   7]
          +0.077*[#   8]
    |psi|^2 = 0.464
==== e(   8) =    14.74516 eV ==== 
     psi = 0.072*[#   2]+0.072*[#   3]+0.072*[#   4]+0.072*[#   6]+0.072*[#   7]
          +0.072*[#   8]+0.041*[#   1]+0.041*[#   5]
    |psi|^2 = 0.516

 k =  -0.7071067812  0.0000000000  0.0000000000
==== e(   1) =    -1.68159 eV ==== 
     psi = 0.281*[#   1]+0.281*[#   5]+0.072*[#   2]+0.072*[#   3]+0.072*[#   4]
          +0.072*[#   6]+0.072*[#   7]+0.072*[#   8]
    |psi|^2 = 0.993
==== e(   2) =    -1.68159 eV ==== 
     psi = 0.281*[#   1]+0.281*[#   5]+0.144*[#   2]+0.144*[#   3]+0.144*[#   4]
          +0.144*[#   6]+0.144*[#   7]+0.144*[#   8]
    |psi|^2 = 1.425
==== e(   3) =     3.27418 eV ==== 
     psi = 0.083*[#   2]+0.083*[#   3]+0.083*[#   4]+0.083*[#   6]+0.083*[#   7]
          +0.083*[#   8]
    |psi|^2 = 0.497
==== e(   4) =     3.27418 eV ==== 
     psi = 0.155*[#   2]+0.155*[#   3]+0.155*[#   4]+0.155*[#   6]+0.155*[#   7]
          +0.155*[#   8]
    |psi|^2 = 0.929
==== e(   5) =     6.74188 eV ==== 
     psi = 0.170*[#   1]+0.170*[#   5]+0.082*[#   2]+0.082*[#   3]+0.082*[#   4]
          +0.082*[#   6]+0.082*[#   7]+0.082*[#   8]
    |psi|^2 = 0.831
==== e(   6) =     6.74188 eV ==== 
     psi = 0.170*[#   1]+0.170*[#   5]+0.164*[#   2]+0.164*[#   3]+0.164*[#   4]
          +0.164*[#   6]+0.164*[#   7]+0.164*[#   8]
    |psi|^2 = 1.322
==== e(   7) =    16.18770 eV ==== 
     psi = 0.077*[#   2]+0.077*[#   3]+0.077*[#   4]+0.077*[#   6]+0.077*[#   7]
          +0.077*[#   8]
    |psi|^2 = 0.462
==== e(   8) =    16.18770 eV ==== 
     psi = 0.159*[#   2]+0.159*[#   3]+0.159*[#   4]+0.159*[#   6]+0.159*[#   7]
          +0.159*[#   8]
    |psi|^2 = 0.953

 k =   0.2828427125  0.1414213562 -0.0000000000
==== e(   1) =    -4.97214 eV ==== 
     psi = 0.374*[#   1]+0.374*[#   5]+0.041*[#   2]+0.041*[#   3]+0.041*[#   4]
          +0.041*[#   6]+0.041*[#   7]+0.041*[#   8]
    |psi|^2 = 0.996
==== e(   2) =     2.75986 eV ==== 
     psi = 0.170*[#   1]+0.170*[#   5]+0.114*[#   2]+0.114*[#   3]+0.114*[#   4]
          +0.114*[#   6]+0.114*[#   7]+0.114*[#   8]
    |psi|^2 = 1.021
==== e(   3) =     4.03613 eV ==== 
     psi = 0.089*[#   2]+0.089*[#   3]+0.089*[#   4]+0.089*[#   6]+0.089*[#   7]
          +0.089*[#   8]+0.030*[#   1]+0.030*[#   5]
    |psi|^2 = 0.594
==== e(   4) =     5.16647 eV ==== 
     psi = 0.193*[#   2]+0.193*[#   3]+0.193*[#   4]+0.193*[#   6]+0.193*[#   7]
          +0.193*[#   8]+0.014*[#   1]+0.014*[#   5]
    |psi|^2 = 1.185
==== e(   5) =     8.42519 eV ==== 
     psi = 0.133*[#   2]+0.133*[#   3]+0.133*[#   4]+0.133*[#   6]+0.133*[#   7]
          +0.133*[#   8]+0.070*[#   1]+0.070*[#   5]
    |psi|^2 = 0.936
==== e(   6) =     9.82813 eV ==== 
     psi = 0.149*[#   1]+0.149*[#   5]+0.132*[#   2]+0.132*[#   3]+0.132*[#   4]
          +0.132*[#   6]+0.132*[#   7]+0.132*[#   8]
    |psi|^2 = 1.088
==== e(   7) =    10.65622 eV ==== 
     psi = 0.120*[#   2]+0.120*[#   3]+0.120*[#   4]+0.120*[#   6]+0.120*[#   7]
          +0.120*[#   8]+0.041*[#   1]+0.041*[#   5]
    |psi|^2 = 0.803
==== e(   8) =    10.76819 eV ==== 
     psi = 0.109*[#   2]+0.109*[#   3]+0.109*[#   4]+0.109*[#   6]+0.109*[#   7]
          +0.109*[#   8]+0.015*[#   1]+0.015*[#   5]
    |psi|^2 = 0.684

 k =   0.3535533906  0.2121320344 -0.0707106781
==== e(   1) =    -4.35865 eV ==== 
     psi = 0.347*[#   1]+0.347*[#   5]+0.050*[#   2]+0.050*[#   3]+0.050*[#   4]
          +0.050*[#   6]+0.050*[#   7]+0.050*[#   8]
    |psi|^2 = 0.996
==== e(   2) =     1.34499 eV ==== 
     psi = 0.181*[#   1]+0.181*[#   5]+0.102*[#   2]+0.102*[#   3]+0.102*[#   4]
          +0.102*[#   6]+0.102*[#   7]+0.102*[#   8]
    |psi|^2 = 0.976
==== e(   3) =     3.44439 eV ==== 
     psi = 0.106*[#   2]+0.106*[#   3]+0.106*[#   4]+0.106*[#   6]+0.106*[#   7]
          +0.106*[#   8]+0.052*[#   1]+0.052*[#   5]
    |psi|^2 = 0.739
==== e(   4) =     4.78722 eV ==== 
     psi = 0.180*[#   2]+0.180*[#   3]+0.180*[#   4]+0.180*[#   6]+0.180*[#   7]
          +0.180*[#   8]+0.010*[#   1]+0.010*[#   5]
    |psi|^2 = 1.099
==== e(   5) =     8.77385 eV ==== 
     psi = 0.113*[#   2]+0.113*[#   3]+0.113*[#   4]+0.113*[#   6]+0.113*[#   7]
          +0.113*[#   8]+0.098*[#   1]+0.098*[#   5]
    |psi|^2 = 0.875
==== e(   6) =     9.70213 eV ==== 
     psi = 0.118*[#   2]+0.118*[#   3]+0.118*[#   4]+0.118*[#   6]+0.118*[#   7]
          +0.118*[#   8]+0.085*[#   1]+0.085*[#   5]
    |psi|^2 = 0.880
==== e(   7) =    10.77501 eV ==== 
     psi = 0.142*[#   2]+0.142*[#   3]+0.142*[#   4]+0.142*[#   6]+0.142*[#   7]
          +0.142*[#   8]+0.081*[#   1]+0.081*[#   5]
    |psi|^2 = 1.011
==== e(   8) =    11.21535 eV ==== 
     psi = 0.080*[#   2]+0.080*[#   3]+0.080*[#   4]+0.080*[#   6]+0.080*[#   7]
          +0.080*[#   8]+0.020*[#   1]+0.020*[#   5]
    |psi|^2 = 0.522

 k =  -0.2828427125 -0.4242640687  0.5656854249
==== e(   1) =    -3.60744 eV ==== 
     psi = 0.344*[#   1]+0.344*[#   5]+0.051*[#   2]+0.051*[#   3]+0.051*[#   4]
          +0.051*[#   6]+0.051*[#   7]+0.051*[#   8]
    |psi|^2 = 0.996
==== e(   2) =    -0.02632 eV ==== 
     psi = 0.172*[#   1]+0.172*[#   5]+0.096*[#   2]+0.096*[#   3]+0.096*[#   4]
          +0.096*[#   6]+0.096*[#   7]+0.096*[#   8]
    |psi|^2 = 0.922
==== e(   3) =     3.21422 eV ==== 
     psi = 0.116*[#   2]+0.116*[#   3]+0.116*[#   4]+0.116*[#   6]+0.116*[#   7]
          +0.116*[#   8]+0.066*[#   1]+0.066*[#   5]
    |psi|^2 = 0.828
==== e(   4) =     4.43345 eV ==== 
     psi = 0.171*[#   2]+0.171*[#   3]+0.171*[#   4]+0.171*[#   6]+0.171*[#   7]
          +0.171*[#   8]+0.004*[#   1]+0.004*[#   5]
    |psi|^2 = 1.034
==== e(   5) =     8.82670 eV ==== 
     psi = 0.145*[#   1]+0.145*[#   5]+0.092*[#   2]+0.092*[#   3]+0.092*[#   4]
          +0.092*[#   6]+0.092*[#   7]+0.092*[#   8]
    |psi|^2 = 0.839
==== e(   6) =     9.35398 eV ==== 
     psi = 0.108*[#   2]+0.108*[#   3]+0.108*[#   4]+0.108*[#   6]+0.108*[#   7]
          +0.108*[#   8]+0.045*[#   1]+0.045*[#   5]
    |psi|^2 = 0.739
==== e(   7) =    11.15159 eV ==== 
     psi = 0.166*[#   2]+0.166*[#   3]+0.166*[#   4]+0.166*[#   6]+0.166*[#   7]
          +0.166*[#   8]+0.037*[#   1]+0.037*[#   5]
    |psi|^2 = 1.072
==== e(   8) =    12.12112 eV ==== 
     psi = 0.066*[#   1]+0.066*[#   5]+0.052*[#   2]+0.052*[#   3]+0.052*[#   4]
          +0.052*[#   6]+0.052*[#   7]+0.052*[#   8]
    |psi|^2 = 0.442

 k =  -0.2121320344 -0.3535533906  0.4949747468
==== e(   1) =    -3.14317 eV ==== 
     psi = 0.362*[#   1]+0.362*[#   5]+0.045*[#   2]+0.045*[#   3]+0.045*[#   4]
          +0.045*[#   6]+0.045*[#   7]+0.045*[#   8]
    |psi|^2 = 0.997
==== e(   2) =    -0.71051 eV ==== 
     psi = 0.150*[#   1]+0.150*[#   5]+0.093*[#   2]+0.093*[#   3]+0.093*[#   4]
          +0.093*[#   6]+0.093*[#   7]+0.093*[#   8]
    |psi|^2 = 0.856
==== e(   3) =     3.15509 eV ==== 
     psi = 0.122*[#   2]+0.122*[#   3]+0.122*[#   4]+0.122*[#   6]+0.122*[#   7]
          +0.122*[#   8]+0.072*[#   1]+0.072*[#   5]
    |psi|^2 = 0.878
==== e(   4) =     4.29421 eV ==== 
     psi = 0.167*[#   2]+0.167*[#   3]+0.167*[#   4]+0.167*[#   6]+0.167*[#   7]
          +0.167*[#   8]+0.001*[#   1]+0.001*[#   5]
    |psi|^2 = 1.006
==== e(   5) =     8.86096 eV ==== 
     psi = 0.187*[#   1]+0.187*[#   5]+0.081*[#   2]+0.081*[#   3]+0.081*[#   4]
          +0.081*[#   6]+0.081*[#   7]+0.081*[#   8]
    |psi|^2 = 0.860
==== e(   6) =     9.15780 eV ==== 
     psi = 0.109*[#   2]+0.109*[#   3]+0.109*[#   4]+0.109*[#   6]+0.109*[#   7]
          +0.109*[#   8]+0.009*[#   1]+0.009*[#   5]
    |psi|^2 = 0.673
==== e(   7) =    11.10897 eV ==== 
     psi = 0.136*[#   2]+0.136*[#   3]+0.136*[#   4]+0.136*[#   6]+0.136*[#   7]
          +0.136*[#   8]+0.039*[#   1]+0.039*[#   5]
    |psi|^2 = 0.896
==== e(   8) =    13.85580 eV ==== 
     psi = 0.061*[#   2]+0.061*[#   3]+0.061*[#   4]+0.061*[#   6]+0.061*[#   7]
          +0.061*[#   8]+0.022*[#   1]+0.022*[#   5]
    |psi|^2 = 0.410

 k =   0.4242640687  0.1414213562 -0.0000000000
==== e(   1) =    -4.13187 eV ==== 
     psi = 0.332*[#   1]+0.332*[#   5]+0.055*[#   2]+0.055*[#   3]+0.055*[#   4]
          +0.055*[#   6]+0.055*[#   7]+0.055*[#   8]
    |psi|^2 = 0.995
==== e(   2) =     1.36609 eV ==== 
     psi = 0.226*[#   1]+0.226*[#   5]+0.121*[#   2]+0.121*[#   3]+0.121*[#   4]
          +0.121*[#   6]+0.121*[#   7]+0.121*[#   8]
    |psi|^2 = 1.179
==== e(   3) =     3.30502 eV ==== 
     psi = 0.089*[#   2]+0.089*[#   3]+0.089*[#   4]+0.089*[#   6]+0.089*[#   7]
          +0.089*[#   8]+0.027*[#   1]+0.027*[#   5]
    |psi|^2 = 0.589
==== e(   4) =     4.03982 eV ==== 
     psi = 0.177*[#   2]+0.177*[#   3]+0.177*[#   4]+0.177*[#   6]+0.177*[#   7]
          +0.177*[#   8]+0.006*[#   1]+0.006*[#   5]
    |psi|^2 = 1.077
==== e(   5) =     7.84060 eV ==== 
     psi = 0.115*[#   2]+0.115*[#   3]+0.115*[#   4]+0.115*[#   6]+0.115*[#   7]
          +0.115*[#   8]+0.111*[#   1]+0.111*[#   5]
    |psi|^2 = 0.916
==== e(   6) =     9.10358 eV ==== 
     psi = 0.140*[#   2]+0.140*[#   3]+0.140*[#   4]+0.140*[#   6]+0.140*[#   7]
          +0.140*[#   8]+0.118*[#   1]+0.118*[#   5]
    |psi|^2 = 1.078
==== e(   7) =    11.29717 eV ==== 
     psi = 0.047*[#   1]+0.047*[#   5]+0.041*[#   2]+0.041*[#   3]+0.041*[#   4]
          +0.041*[#   6]+0.041*[#   7]+0.041*[#   8]
    |psi|^2 = 0.342
==== e(   8) =    12.64345 eV ==== 
     psi = 0.122*[#   2]+0.122*[#   3]+0.122*[#   4]+0.122*[#   6]+0.122*[#   7]
          +0.122*[#   8]+0.008*[#   1]+0.008*[#   5]
    |psi|^2 = 0.745

 k =  -0.2121320344 -0.4949747468  0.6363961031
==== e(   1) =    -3.40845 eV ==== 
     psi = 0.322*[#   1]+0.322*[#   5]+0.058*[#   2]+0.058*[#   3]+0.058*[#   4]
          +0.058*[#   6]+0.058*[#   7]+0.058*[#   8]
    |psi|^2 = 0.995
==== e(   2) =     0.26075 eV ==== 
     psi = 0.231*[#   1]+0.231*[#   5]+0.108*[#   2]+0.108*[#   3]+0.108*[#   4]
          +0.108*[#   6]+0.108*[#   7]+0.108*[#   8]
    |psi|^2 = 1.109
==== e(   3) =     2.67941 eV ==== 
     psi = 0.113*[#   2]+0.113*[#   3]+0.113*[#   4]+0.113*[#   6]+0.113*[#   7]
          +0.113*[#   8]+0.039*[#   1]+0.039*[#   5]
    |psi|^2 = 0.754
==== e(   4) =     3.70554 eV ==== 
     psi = 0.157*[#   2]+0.157*[#   3]+0.157*[#   4]+0.157*[#   6]+0.157*[#   7]
          +0.157*[#   8]+0.002*[#   1]+0.002*[#   5]
    |psi|^2 = 0.949
==== e(   5) =     8.21711 eV ==== 
     psi = 0.108*[#   1]+0.108*[#   5]+0.101*[#   2]+0.101*[#   3]+0.101*[#   4]
          +0.101*[#   6]+0.101*[#   7]+0.101*[#   8]
    |psi|^2 = 0.822
==== e(   6) =     9.81224 eV ==== 
     psi = 0.140*[#   2]+0.140*[#   3]+0.140*[#   4]+0.140*[#   6]+0.140*[#   7]
          +0.140*[#   8]+0.084*[#   1]+0.084*[#   5]
    |psi|^2 = 1.008
==== e(   7) =    10.91200 eV ==== 
     psi = 0.079*[#   1]+0.079*[#   5]+0.039*[#   2]+0.039*[#   3]+0.039*[#   4]
          +0.039*[#   6]+0.039*[#   7]+0.039*[#   8]
    |psi|^2 = 0.392
==== e(   8) =    13.03227 eV ==== 
     psi = 0.111*[#   2]+0.111*[#   3]+0.111*[#   4]+0.111*[#   6]+0.111*[#   7]
          +0.111*[#   8]+0.023*[#   1]+0.023*[#   5]
    |psi|^2 = 0.711

 k =  -0.1414213562 -0.4242640687  0.5656854249
==== e(   1) =    -2.75262 eV ==== 
     psi = 0.336*[#   1]+0.336*[#   5]+0.054*[#   2]+0.054*[#   3]+0.054*[#   4]
          +0.054*[#   6]+0.054*[#   7]+0.054*[#   8]
    |psi|^2 = 0.996
==== e(   2) =    -0.60948 eV ==== 
     psi = 0.212*[#   1]+0.212*[#   5]+0.097*[#   2]+0.097*[#   3]+0.097*[#   4]
          +0.097*[#   6]+0.097*[#   7]+0.097*[#   8]
    |psi|^2 = 1.003
==== e(   3) =     2.26745 eV ==== 
     psi = 0.135*[#   2]+0.135*[#   3]+0.135*[#   4]+0.135*[#   6]+0.135*[#   7]
          +0.135*[#   8]+0.043*[#   1]+0.043*[#   5]
    |psi|^2 = 0.897
==== e(   4) =     3.64927 eV ==== 
     psi = 0.141*[#   2]+0.141*[#   3]+0.141*[#   4]+0.141*[#   6]+0.141*[#   7]
          +0.141*[#   8]+0.003*[#   1]+0.003*[#   5]
    |psi|^2 = 0.854
==== e(   5) =     8.39778 eV ==== 
     psi = 0.099*[#   2]+0.099*[#   3]+0.099*[#   4]+0.099*[#   6]+0.099*[#   7]
          +0.099*[#   8]+0.098*[#   1]+0.098*[#   5]
    |psi|^2 = 0.792
==== e(   6) =    10.43956 eV ==== 
     psi = 0.112*[#   2]+0.112*[#   3]+0.112*[#   4]+0.112*[#   6]+0.112*[#   7]
          +0.112*[#   8]+0.052*[#   1]+0.052*[#   5]
    |psi|^2 = 0.774
==== e(   7) =    11.58306 eV ==== 
     psi = 0.106*[#   2]+0.106*[#   3]+0.106*[#   4]+0.106*[#   6]+0.106*[#   7]
          +0.106*[#   8]+0.092*[#   1]+0.092*[#   5]
    |psi|^2 = 0.822
==== e(   8) =    12.96073 eV ==== 
     psi = 0.075*[#   2]+0.075*[#   3]+0.075*[#   4]+0.075*[#   6]+0.075*[#   7]
          +0.075*[#   8]+0.040*[#   1]+0.040*[#   5]
    |psi|^2 = 0.531

 k =  -0.0707106781 -0.3535533906  0.4949747468
==== e(   1) =    -2.95568 eV ==== 
     psi = 0.333*[#   1]+0.333*[#   5]+0.055*[#   2]+0.055*[#   3]+0.055*[#   4]
          +0.055*[#   6]+0.055*[#   7]+0.055*[#   8]
    |psi|^2 = 0.996
==== e(   2) =    -0.34778 eV ==== 
     psi = 0.217*[#   1]+0.217*[#   5]+0.079*[#   2]+0.079*[#   3]+0.079*[#   4]
          +0.079*[#   6]+0.079*[#   7]+0.079*[#   8]
    |psi|^2 = 0.907
==== e(   3) =     2.11365 eV ==== 
     psi = 0.143*[#   2]+0.143*[#   3]+0.143*[#   4]+0.143*[#   6]+0.143*[#   7]
          +0.143*[#   8]+0.038*[#   1]+0.038*[#   5]
    |psi|^2 = 0.936
==== e(   4) =     3.89204 eV ==== 
     psi = 0.141*[#   2]+0.141*[#   3]+0.141*[#   4]+0.141*[#   6]+0.141*[#   7]
          +0.141*[#   8]+0.005*[#   1]+0.005*[#   5]
    |psi|^2 = 0.856
==== e(   5) =     8.74513 eV ==== 
     psi = 0.104*[#   2]+0.104*[#   3]+0.104*[#   4]+0.104*[#   6]+0.104*[#   7]
          +0.104*[#   8]+0.083*[#   1]+0.083*[#   5]
    |psi|^2 = 0.791
==== e(   6) =    10.18497 eV ==== 
     psi = 0.109*[#   2]+0.109*[#   3]+0.109*[#   4]+0.109*[#   6]+0.109*[#   7]
          +0.109*[#   8]+0.070*[#   1]+0.070*[#   5]
    |psi|^2 = 0.793
==== e(   7) =    12.02006 eV ==== 
     psi = 0.091*[#   2]+0.091*[#   3]+0.091*[#   4]+0.091*[#   6]+0.091*[#   7]
          +0.091*[#   8]+0.075*[#   1]+0.075*[#   5]
    |psi|^2 = 0.697
==== e(   8) =    12.81438 eV ==== 
     psi = 0.068*[#   2]+0.068*[#   3]+0.068*[#   4]+0.068*[#   6]+0.068*[#   7]
          +0.068*[#   8]+0.020*[#   1]+0.020*[#   5]
    |psi|^2 = 0.448

 k =   0.0000000000 -0.2828427125  0.4242640687
==== e(   1) =    -3.69596 eV ==== 
     psi = 0.331*[#   1]+0.331*[#   5]+0.056*[#   2]+0.056*[#   3]+0.056*[#   4]
          +0.056*[#   6]+0.056*[#   7]+0.056*[#   8]
    |psi|^2 = 0.995
==== e(   2) =     0.60673 eV ==== 
     psi = 0.220*[#   1]+0.220*[#   5]+0.063*[#   2]+0.063*[#   3]+0.063*[#   4]
          +0.063*[#   6]+0.063*[#   7]+0.063*[#   8]
    |psi|^2 = 0.820
==== e(   3) =     2.41460 eV ==== 
     psi = 0.159*[#   2]+0.159*[#   3]+0.159*[#   4]+0.159*[#   6]+0.159*[#   7]
          +0.159*[#   8]+0.035*[#   1]+0.035*[#   5]
    |psi|^2 = 1.023
==== e(   4) =     4.33770 eV ==== 
     psi = 0.135*[#   2]+0.135*[#   3]+0.135*[#   4]+0.135*[#   6]+0.135*[#   7]
          +0.135*[#   8]+0.007*[#   1]+0.007*[#   5]
    |psi|^2 = 0.824
==== e(   5) =     9.25226 eV ==== 
     psi = 0.109*[#   2]+0.109*[#   3]+0.109*[#   4]+0.109*[#   6]+0.109*[#   7]
          +0.109*[#   8]+0.074*[#   1]+0.074*[#   5]
    |psi|^2 = 0.803
==== e(   6) =     9.73765 eV ==== 
     psi = 0.117*[#   2]+0.117*[#   3]+0.117*[#   4]+0.117*[#   6]+0.117*[#   7]
          +0.117*[#   8]+0.062*[#   1]+0.062*[#   5]
    |psi|^2 = 0.828
==== e(   7) =    10.77564 eV ==== 
     psi = 0.109*[#   1]+0.109*[#   5]+0.102*[#   2]+0.102*[#   3]+0.102*[#   4]
          +0.102*[#   6]+0.102*[#   7]+0.102*[#   8]
    |psi|^2 = 0.828
==== e(   8) =    12.35205 eV ==== 
     psi = 0.122*[#   2]+0.122*[#   3]+0.122*[#   4]+0.122*[#   6]+0.122*[#   7]
          +0.122*[#   8]+0.024*[#   1]+0.024*[#   5]
    |psi|^2 = 0.779

 k =  -0.1414213562 -0.5656854249  0.7071067812
==== e(   1) =    -2.99725 eV ==== 
     psi = 0.305*[#   1]+0.305*[#   5]+0.064*[#   2]+0.064*[#   3]+0.064*[#   4]
          +0.064*[#   6]+0.064*[#   7]+0.064*[#   8]
    |psi|^2 = 0.995
==== e(   2) =    -0.12416 eV ==== 
     psi = 0.265*[#   1]+0.265*[#   5]+0.128*[#   2]+0.128*[#   3]+0.128*[#   4]
          +0.128*[#   6]+0.128*[#   7]+0.128*[#   8]
    |psi|^2 = 1.297
==== e(   3) =     2.89227 eV ==== 
     psi = 0.088*[#   2]+0.088*[#   3]+0.088*[#   4]+0.088*[#   6]+0.088*[#   7]
          +0.088*[#   8]+0.018*[#   1]+0.018*[#   5]
    |psi|^2 = 0.566
==== e(   4) =     3.22346 eV ==== 
     psi = 0.166*[#   2]+0.166*[#   3]+0.166*[#   4]+0.166*[#   6]+0.166*[#   7]
          +0.166*[#   8]
    |psi|^2 = 0.995
==== e(   5) =     7.53840 eV ==== 
     psi = 0.135*[#   1]+0.135*[#   5]+0.101*[#   2]+0.101*[#   3]+0.101*[#   4]
          +0.101*[#   6]+0.101*[#   7]+0.101*[#   8]
    |psi|^2 = 0.874
==== e(   6) =     8.11680 eV ==== 
     psi = 0.148*[#   2]+0.148*[#   3]+0.148*[#   4]+0.148*[#   6]+0.148*[#   7]
          +0.148*[#   8]+0.131*[#   1]+0.131*[#   5]
    |psi|^2 = 1.148
==== e(   7) =    12.84251 eV ==== 
     psi = 0.041*[#   2]+0.041*[#   3]+0.041*[#   4]+0.041*[#   6]+0.041*[#   7]
          +0.041*[#   8]+0.037*[#   1]+0.037*[#   5]
    |psi|^2 = 0.321
==== e(   8) =    14.59347 eV ==== 
     psi = 0.124*[#   2]+0.124*[#   3]+0.124*[#   4]+0.124*[#   6]+0.124*[#   7]
          +0.124*[#   8]+0.005*[#   1]+0.005*[#   5]
    |psi|^2 = 0.755

 k =  -0.0707106781 -0.4949747468  0.6363961031
==== e(   1) =    -2.25453 eV ==== 
     psi = 0.308*[#   1]+0.308*[#   5]+0.063*[#   2]+0.063*[#   3]+0.063*[#   4]
          +0.063*[#   6]+0.063*[#   7]+0.063*[#   8]
    |psi|^2 = 0.995
==== e(   2) =    -0.90005 eV ==== 
     psi = 0.273*[#   1]+0.273*[#   5]+0.112*[#   2]+0.112*[#   3]+0.112*[#   4]
          +0.112*[#   6]+0.112*[#   7]+0.112*[#   8]
    |psi|^2 = 1.219
==== e(   3) =     2.17646 eV ==== 
     psi = 0.116*[#   2]+0.116*[#   3]+0.116*[#   4]+0.116*[#   6]+0.116*[#   7]
          +0.116*[#   8]+0.008*[#   1]+0.008*[#   5]
    |psi|^2 = 0.710
==== e(   4) =     3.13085 eV ==== 
     psi = 0.146*[#   2]+0.146*[#   3]+0.146*[#   4]+0.146*[#   6]+0.146*[#   7]
          +0.146*[#   8]+0.005*[#   1]+0.005*[#   5]
    |psi|^2 = 0.884
==== e(   5) =     7.88580 eV ==== 
     psi = 0.120*[#   1]+0.120*[#   5]+0.093*[#   2]+0.093*[#   3]+0.093*[#   4]
          +0.093*[#   6]+0.093*[#   7]+0.093*[#   8]
    |psi|^2 = 0.797
==== e(   6) =     9.34013 eV ==== 
     psi = 0.144*[#   2]+0.144*[#   3]+0.144*[#   4]+0.144*[#   6]+0.144*[#   7]
          +0.144*[#   8]+0.101*[#   1]+0.101*[#   5]
    |psi|^2 = 1.066
==== e(   7) =    12.43333 eV ==== 
     psi = 0.055*[#   1]+0.055*[#   5]+0.038*[#   2]+0.038*[#   3]+0.038*[#   4]
          +0.038*[#   6]+0.038*[#   7]+0.038*[#   8]
    |psi|^2 = 0.340
==== e(   8) =    14.21571 eV ==== 
     psi = 0.085*[#   2]+0.085*[#   3]+0.085*[#   4]+0.085*[#   6]+0.085*[#   7]
          +0.085*[#   8]+0.043*[#   1]+0.043*[#   5]
    |psi|^2 = 0.596

 k =  -0.0000000000 -0.4242640687  0.5656854249
==== e(   1) =    -2.25721 eV ==== 
     psi = 0.325*[#   1]+0.325*[#   5]+0.058*[#   2]+0.058*[#   3]+0.058*[#   4]
          +0.058*[#   6]+0.058*[#   7]+0.058*[#   8]
    |psi|^2 = 0.996
==== e(   2) =    -0.87558 eV ==== 
     psi = 0.258*[#   1]+0.258*[#   5]+0.090*[#   2]+0.090*[#   3]+0.090*[#   4]
          +0.090*[#   6]+0.090*[#   7]+0.090*[#   8]
    |psi|^2 = 1.057
==== e(   3) =     1.75385 eV ==== 
     psi = 0.134*[#   2]+0.134*[#   3]+0.134*[#   4]+0.134*[#   6]+0.134*[#   7]
          +0.134*[#   8]+0.003*[#   1]+0.003*[#   5]
    |psi|^2 = 0.810
==== e(   4) =     3.40321 eV ==== 
     psi = 0.143*[#   2]+0.143*[#   3]+0.143*[#   4]+0.143*[#   6]+0.143*[#   7]
          +0.143*[#   8]+0.006*[#   1]+0.006*[#   5]
    |psi|^2 = 0.871
==== e(   5) =     8.21728 eV ==== 
     psi = 0.100*[#   1]+0.100*[#   5]+0.099*[#   2]+0.099*[#   3]+0.099*[#   4]
          +0.099*[#   6]+0.099*[#   7]+0.099*[#   8]
    |psi|^2 = 0.793
==== e(   6) =    11.16964 eV ==== 
     psi = 0.124*[#   2]+0.124*[#   3]+0.124*[#   4]+0.124*[#   6]+0.124*[#   7]
          +0.124*[#   8]+0.023*[#   1]+0.023*[#   5]
    |psi|^2 = 0.792
==== e(   7) =    12.04443 eV ==== 
     psi = 0.099*[#   1]+0.099*[#   5]+0.039*[#   2]+0.039*[#   3]+0.039*[#   4]
          +0.039*[#   6]+0.039*[#   7]+0.039*[#   8]
    |psi|^2 = 0.435
==== e(   8) =    12.35296 eV ==== 
     psi = 0.078*[#   1]+0.078*[#   5]+0.046*[#   2]+0.046*[#   3]+0.046*[#   4]
          +0.046*[#   6]+0.046*[#   7]+0.046*[#   8]
    |psi|^2 = 0.432

 k =  -0.7071067812  0.1414213562  0.0000000000
==== e(   1) =    -1.62690 eV ==== 
     psi = 0.287*[#   1]+0.287*[#   5]+0.070*[#   2]+0.070*[#   3]+0.070*[#   4]
          +0.070*[#   6]+0.070*[#   7]+0.070*[#   8]
    |psi|^2 = 0.994
==== e(   2) =    -1.62690 eV ==== 
     psi = 0.287*[#   1]+0.287*[#   5]+0.131*[#   2]+0.131*[#   3]+0.131*[#   4]
          +0.131*[#   6]+0.131*[#   7]+0.131*[#   8]
    |psi|^2 = 1.358
==== e(   3) =     2.85002 eV ==== 
     psi = 0.092*[#   2]+0.092*[#   3]+0.092*[#   4]+0.092*[#   6]+0.092*[#   7]
          +0.092*[#   8]+0.007*[#   1]+0.007*[#   5]
    |psi|^2 = 0.569
==== e(   4) =     2.85003 eV ==== 
     psi = 0.153*[#   2]+0.153*[#   3]+0.153*[#   4]+0.153*[#   6]+0.153*[#   7]
          +0.153*[#   8]+0.007*[#   1]+0.007*[#   5]
    |psi|^2 = 0.934
==== e(   5) =     7.60955 eV ==== 
     psi = 0.140*[#   1]+0.140*[#   5]+0.086*[#   2]+0.086*[#   3]+0.086*[#   4]
          +0.086*[#   6]+0.086*[#   7]+0.086*[#   8]
    |psi|^2 = 0.794
==== e(   6) =     7.60955 eV ==== 
     psi = 0.152*[#   2]+0.152*[#   3]+0.152*[#   4]+0.152*[#   6]+0.152*[#   7]
          +0.152*[#   8]+0.140*[#   1]+0.140*[#   5]
    |psi|^2 = 1.194
==== e(   7) =    14.57436 eV ==== 
     psi = 0.040*[#   2]+0.040*[#   3]+0.040*[#   4]+0.040*[#   6]+0.040*[#   7]
          +0.040*[#   8]+0.027*[#   1]+0.027*[#   5]
    |psi|^2 = 0.291
==== e(   8) =    14.57437 eV ==== 
     psi = 0.106*[#   2]+0.106*[#   3]+0.106*[#   4]+0.106*[#   6]+0.106*[#   7]
          +0.106*[#   8]+0.027*[#   1]+0.027*[#   5]
    |psi|^2 = 0.691

 k =  -0.1414213562 -0.4242640687  0.7071067812
==== e(   1) =    -2.67294 eV ==== 
     psi = 0.316*[#   1]+0.316*[#   5]+0.061*[#   2]+0.061*[#   3]+0.061*[#   4]
          +0.061*[#   6]+0.061*[#   7]+0.061*[#   8]
    |psi|^2 = 0.995
==== e(   2) =    -0.42258 eV ==== 
     psi = 0.264*[#   1]+0.264*[#   5]+0.089*[#   2]+0.089*[#   3]+0.089*[#   4]
          +0.089*[#   6]+0.089*[#   7]+0.089*[#   8]
    |psi|^2 = 1.063
==== e(   3) =     2.11721 eV ==== 
     psi = 0.120*[#   2]+0.120*[#   3]+0.120*[#   4]+0.120*[#   6]+0.120*[#   7]
          +0.120*[#   8]+0.017*[#   1]+0.017*[#   5]
    |psi|^2 = 0.756
==== e(   4) =     3.11615 eV ==== 
     psi = 0.163*[#   2]+0.163*[#   3]+0.163*[#   4]+0.163*[#   6]+0.163*[#   7]
          +0.163*[#   8]+0.002*[#   1]+0.002*[#   5]
    |psi|^2 = 0.980
==== e(   5) =     9.46298 eV ==== 
     psi = 0.101*[#   2]+0.101*[#   3]+0.101*[#   4]+0.101*[#   6]+0.101*[#   7]
          +0.101*[#   8]+0.080*[#   1]+0.080*[#   5]
    |psi|^2 = 0.768
==== e(   6) =     9.81963 eV ==== 
     psi = 0.140*[#   2]+0.140*[#   3]+0.140*[#   4]+0.140*[#   6]+0.140*[#   7]
          +0.140*[#   8]+0.028*[#   1]+0.028*[#   5]
    |psi|^2 = 0.896
==== e(   7) =    10.51714 eV ==== 
     psi = 0.143*[#   1]+0.143*[#   5]+0.035*[#   2]+0.035*[#   3]+0.035*[#   4]
          +0.035*[#   6]+0.035*[#   7]+0.035*[#   8]
    |psi|^2 = 0.495
==== e(   8) =    13.86039 eV ==== 
     psi = 0.052*[#   1]+0.052*[#   5]+0.042*[#   2]+0.042*[#   3]+0.042*[#   4]
          +0.042*[#   6]+0.042*[#   7]+0.042*[#   8]
    |psi|^2 = 0.357

 k =  -0.0707106781 -0.3535533906  0.6363961031
==== e(   1) =    -2.15808 eV ==== 
     psi = 0.320*[#   1]+0.320*[#   5]+0.059*[#   2]+0.059*[#   3]+0.059*[#   4]
          +0.059*[#   6]+0.059*[#   7]+0.059*[#   8]
    |psi|^2 = 0.996
==== e(   2) =    -0.93347 eV ==== 
     psi = 0.267*[#   1]+0.267*[#   5]+0.069*[#   2]+0.069*[#   3]+0.069*[#   4]
          +0.069*[#   6]+0.069*[#   7]+0.069*[#   8]
    |psi|^2 = 0.949
==== e(   3) =     1.95692 eV ==== 
     psi = 0.145*[#   2]+0.145*[#   3]+0.145*[#   4]+0.145*[#   6]+0.145*[#   7]
          +0.145*[#   8]+0.010*[#   1]+0.010*[#   5]
    |psi|^2 = 0.892
==== e(   4) =     2.86132 eV ==== 
     psi = 0.152*[#   2]+0.152*[#   3]+0.152*[#   4]+0.152*[#   6]+0.152*[#   7]
          +0.152*[#   8]+0.002*[#   1]+0.002*[#   5]
    |psi|^2 = 0.918
==== e(   5) =     9.72569 eV ==== 
     psi = 0.096*[#   2]+0.096*[#   3]+0.096*[#   4]+0.096*[#   6]+0.096*[#   7]
          +0.096*[#   8]+0.014*[#   1]+0.014*[#   5]
    |psi|^2 = 0.606
==== e(   6) =    10.06242 eV ==== 
     psi = 0.108*[#   1]+0.108*[#   5]+0.078*[#   2]+0.078*[#   3]+0.078*[#   4]
          +0.078*[#   6]+0.078*[#   7]+0.078*[#   8]
    |psi|^2 = 0.686
==== e(   7) =    11.46615 eV ==== 
     psi = 0.075*[#   2]+0.075*[#   3]+0.075*[#   4]+0.075*[#   6]+0.075*[#   7]
          +0.075*[#   8]+0.061*[#   1]+0.061*[#   5]
    |psi|^2 = 0.572
==== e(   8) =    11.92238 eV ==== 
     psi = 0.125*[#   1]+0.125*[#   5]+0.079*[#   2]+0.079*[#   3]+0.079*[#   4]
          +0.079*[#   6]+0.079*[#   7]+0.079*[#   8]
    |psi|^2 = 0.723

 k =  -0.7071067812  0.2828427125  0.0000000000
==== e(   1) =    -1.53017 eV ==== 
     psi = 0.298*[#   1]+0.298*[#   5]+0.066*[#   2]+0.066*[#   3]+0.066*[#   4]
          +0.066*[#   6]+0.066*[#   7]+0.066*[#   8]
    |psi|^2 = 0.995
==== e(   2) =    -1.53017 eV ==== 
     psi = 0.298*[#   1]+0.298*[#   5]+0.092*[#   2]+0.092*[#   3]+0.092*[#   4]
          +0.092*[#   6]+0.092*[#   7]+0.092*[#   8]
    |psi|^2 = 1.146
==== e(   3) =     2.32308 eV ==== 
     psi = 0.124*[#   2]+0.124*[#   3]+0.124*[#   4]+0.124*[#   6]+0.124*[#   7]
          +0.124*[#   8]+0.002*[#   1]+0.002*[#   5]
    |psi|^2 = 0.749
==== e(   4) =     2.32308 eV ==== 
     psi = 0.149*[#   2]+0.149*[#   3]+0.149*[#   4]+0.149*[#   6]+0.149*[#   7]
          +0.149*[#   8]+0.002*[#   1]+0.002*[#   5]
    |psi|^2 = 0.900
==== e(   5) =     9.49085 eV ==== 
     psi = 0.084*[#   2]+0.084*[#   3]+0.084*[#   4]+0.084*[#   6]+0.084*[#   7]
          +0.084*[#   8]+0.079*[#   1]+0.079*[#   5]
    |psi|^2 = 0.663
==== e(   6) =     9.49086 eV ==== 
     psi = 0.138*[#   2]+0.138*[#   3]+0.138*[#   4]+0.138*[#   6]+0.138*[#   7]
          +0.138*[#   8]+0.079*[#   1]+0.079*[#   5]
    |psi|^2 = 0.984
==== e(   7) =    12.00368 eV ==== 
     psi = 0.080*[#   1]+0.080*[#   5]+0.029*[#   2]+0.029*[#   3]+0.029*[#   4]
          +0.029*[#   6]+0.029*[#   7]+0.029*[#   8]
    |psi|^2 = 0.333
==== e(   8) =    12.00368 eV ==== 
     psi = 0.082*[#   2]+0.082*[#   3]+0.082*[#   4]+0.082*[#   6]+0.082*[#   7]
          +0.082*[#   8]+0.080*[#   1]+0.080*[#   5]
    |psi|^2 = 0.654

Lowdin Charges: 

     Atom #   1: total charge =   3.7340, s =  1.1633, 
     Atom #   1: total charge =   3.7340, p =  2.5708, pz=  0.8569, px=  0.8569, py=  0.8569, 
     Atom #   2: total charge =   3.7340, s =  1.1633, 
     Atom #   2: total charge =   3.7340, p =  2.5708, pz=  0.8569, px=  0.8569, py=  0.8569, 
     Spilling Parameter:   0.0665

     PROJWFC      :      0.78s CPU      1.02s WALL


   This run was terminated on:  20:40:31  21Dec2024            

=------------------------------------------------------------------------------=
   JOB DONE.
=------------------------------------------------------------------------------=
