
     Program PWSCF v.7.3.1 starts on 12Jan2025 at 12:48:11 

     This program is part of the open-source Quantum ESPRESSO suite
     for quantum simulation of materials; please cite
         "P. Giannozzi et al., J. Phys.:Condens. Matter 21 395502 (2009);
         "P. Giannozzi et al., J. Phys.:Condens. Matter 29 465901 (2017);
         "P. Giannozzi et al., J. Chem. Phys. 152 154105 (2020);
          URL http://www.quantum-espresso.org", 
     in publications or presentations arising from this work. More details at
     http://www.quantum-espresso.org/quote

     Parallel version (MPI), running on     6 processors

     MPI processes distributed on     1 nodes
     1117 MiB available memory on the printing compute node when the environment starts

     Reading input from vc_relax.in

     Current dimensions of program PWSCF are:
     Max number of different atomic species (ntypx) = 10
     Max number of k-points (npk) =  40000
     Max angular momentum in pseudopotentials (lmaxx) =  4
     file Mn.pbe-spn-kjpaw_psl.0.3.1.UPF: wavefunction(s)  3P 3D renormalized
     file S.pbe-n-kjpaw_psl.1.0.0.UPF: wavefunction(s)  3S 3P renormalized

     R & G space division:  proc/nbgrp/npool/nimage =       6
     Subspace diagonalization in iterative solution of the eigenvalue problem:
     a serial algorithm will be used


     Parallelization info
     --------------------
     sticks:   dense  smooth     PW     G-vecs:    dense   smooth      PW
     Min          93      75     24                 1464     1062     189
     Max          94      76     26                 1468     1063     190
     Sum         559     451    151                 8801     6375    1139

     Using Slab Decomposition



     bravais-lattice index     =           -5
     lattice parameter (alat)  =       7.3933  a.u.
     unit-cell volume          =     285.7574 (a.u.)^3
     number of atoms/cell      =            2
     number of atomic types    =            2
     number of electrons       =        21.00
     number of Kohn-Sham states=           15
     kinetic-energy cutoff     =      30.0000  Ry
     charge density cutoff     =     150.0000  Ry
     scf convergence threshold =      1.0E-10
     mixing beta               =       0.7000
     number of iterations used =            8  plain     mixing
     energy convergence thresh.=      1.0E-05
     force convergence thresh. =      1.0E-04
     press convergence thresh. =      5.0E-01
     Exchange-correlation= SLA  PW   PBX  PBC
                           (   1   4   3   4   0   0   0)
     nstep                     =           50


     celldm(1)=   7.393286  celldm(2)=   0.000000  celldm(3)=   0.000000
     celldm(4)=   0.500000  celldm(5)=   0.000000  celldm(6)=   0.000000

     crystal axes: (cart. coord. in units of alat)
               a(1) = (   0.000000   0.707107   0.707107 )  
               a(2) = (   0.707107   0.000000   0.707107 )  
               a(3) = (   0.707107   0.707107   0.000000 )  

     reciprocal axes: (cart. coord. in units 2 pi/alat)
               b(1) = ( -0.707107  0.707107  0.707107 )  
               b(2) = (  0.707107 -0.707107  0.707107 )  
               b(3) = (  0.707107  0.707107 -0.707107 )  


     PseudoPot. # 1 for Mn read from file:
     ./../../../pseudos/Mn.pbe-spn-kjpaw_psl.0.3.1.UPF
     MD5 check sum: ba19e6d7ccbc12830efad05ba8577d9c
     Pseudo is Projector augmented-wave + core cor, Zval = 15.0
     Generated using &quot;atomic&quot; code by A. Dal Corso  v.6.2.2
     Shape of augmentation charge: PSQ
     Using radial grid of 1187 points,  6 beta functions with: 
                l(1) =   0
                l(2) =   0
                l(3) =   1
                l(4) =   1
                l(5) =   2
                l(6) =   2
     Q(r) pseudized with 0 coefficients 


     PseudoPot. # 2 for S  read from file:
     ./../../../pseudos/S.pbe-n-kjpaw_psl.1.0.0.UPF
     MD5 check sum: fb45dfebcf3e72a4e1bd4a866ec2e262
     Pseudo is Projector augmented-wave + core cor, Zval =  6.0
     Generated using &quot;atomic&quot; code by A. Dal Corso  v.6.3
     Shape of augmentation charge: PSQ
     Using radial grid of 1151 points,  6 beta functions with: 
                l(1) =   0
                l(2) =   0
                l(3) =   1
                l(4) =   1
                l(5) =   2
                l(6) =   2
     Q(r) pseudized with 0 coefficients 


     atomic species   valence    mass     pseudopotential
     Mn               15.00    54.93800     Mn( 1.00)
     S                 6.00    32.06500     S ( 1.00)

     Starting magnetic structure 
     atomic species   magnetization
     Mn              0.200
     S               0.000

     24 Sym. Ops. (no inversion) found


                                    s                        frac. trans.

      isym =  1     identity                                     

 cryst.   s( 1) = (     1          0          0      )
                  (     0          1          0      )
                  (     0          0          1      )

 cart.    s( 1) = (  1.0000000  0.0000000  0.0000000 )
                  (  0.0000000  1.0000000  0.0000000 )
                  (  0.0000000  0.0000000  1.0000000 )


      isym =  2     180 deg rotation - cart. axis [0,0,1]        

 cryst.   s( 2) = (     0          1         -1      )
                  (     1          0         -1      )
                  (     0          0         -1      )

 cart.    s( 2) = ( -1.0000000  0.0000000  0.0000000 )
                  (  0.0000000 -1.0000000  0.0000000 )
                  (  0.0000000  0.0000000  1.0000000 )


      isym =  3     180 deg rotation - cart. axis [0,1,0]        

 cryst.   s( 3) = (     0         -1          1      )
                  (     0         -1          0      )
                  (     1         -1          0      )

 cart.    s( 3) = ( -1.0000000  0.0000000  0.0000000 )
                  (  0.0000000  1.0000000  0.0000000 )
                  (  0.0000000  0.0000000 -1.0000000 )


      isym =  4     180 deg rotation - cart. axis [1,0,0]        

 cryst.   s( 4) = (    -1          0          0      )
                  (    -1          0          1      )
                  (    -1          1          0      )

 cart.    s( 4) = (  1.0000000  0.0000000  0.0000000 )
                  (  0.0000000 -1.0000000  0.0000000 )
                  (  0.0000000  0.0000000 -1.0000000 )


      isym =  5     120 deg rotation - cart. axis [-1,-1,-1]     

 cryst.   s( 5) = (     0          0          1      )
                  (     1          0          0      )
                  (     0          1          0      )

 cart.    s( 5) = (  0.0000000  1.0000000  0.0000000 )
                  (  0.0000000  0.0000000  1.0000000 )
                  (  1.0000000  0.0000000  0.0000000 )


      isym =  6     120 deg rotation - cart. axis [-1,1,1]       

 cryst.   s( 6) = (     1         -1          0      )
                  (     0         -1          1      )
                  (     0         -1          0      )

 cart.    s( 6) = (  0.0000000 -1.0000000  0.0000000 )
                  (  0.0000000  0.0000000  1.0000000 )
                  ( -1.0000000  0.0000000  0.0000000 )


      isym =  7     120 deg rotation - cart. axis [1,1,-1]       

 cryst.   s( 7) = (    -1          1          0      )
                  (    -1          0          0      )
                  (    -1          0          1      )

 cart.    s( 7) = (  0.0000000  1.0000000  0.0000000 )
                  (  0.0000000  0.0000000 -1.0000000 )
                  ( -1.0000000  0.0000000  0.0000000 )


      isym =  8     120 deg rotation - cart. axis [1,-1,1]       

 cryst.   s( 8) = (     0          0         -1      )
                  (     0          1         -1      )
                  (     1          0         -1      )

 cart.    s( 8) = (  0.0000000 -1.0000000  0.0000000 )
                  (  0.0000000  0.0000000 -1.0000000 )
                  (  1.0000000  0.0000000  0.0000000 )


      isym =  9     120 deg rotation - cart. axis [1,1,1]        

 cryst.   s( 9) = (     0          1          0      )
                  (     0          0          1      )
                  (     1          0          0      )

 cart.    s( 9) = (  0.0000000  0.0000000  1.0000000 )
                  (  1.0000000  0.0000000  0.0000000 )
                  (  0.0000000  1.0000000  0.0000000 )


      isym = 10     120 deg rotation - cart. axis [-1,1,-1]      

 cryst.   s(10) = (    -1          0          1      )
                  (    -1          1          0      )
                  (    -1          0          0      )

 cart.    s(10) = (  0.0000000  0.0000000  1.0000000 )
                  ( -1.0000000  0.0000000  0.0000000 )
                  (  0.0000000 -1.0000000  0.0000000 )


      isym = 11     120 deg rotation - cart. axis [1,-1,-1]      

 cryst.   s(11) = (     1          0         -1      )
                  (     0          0         -1      )
                  (     0          1         -1      )

 cart.    s(11) = (  0.0000000  0.0000000 -1.0000000 )
                  ( -1.0000000  0.0000000  0.0000000 )
                  (  0.0000000  1.0000000  0.0000000 )


      isym = 12     120 deg rotation - cart. axis [-1,-1,1]      

 cryst.   s(12) = (     0         -1          0      )
                  (     1         -1          0      )
                  (     0         -1          1      )

 cart.    s(12) = (  0.0000000  0.0000000 -1.0000000 )
                  (  1.0000000  0.0000000  0.0000000 )
                  (  0.0000000 -1.0000000  0.0000000 )


      isym = 13     inv. 180 deg rotation - cart. axis [1,1,0]   

 cryst.   s(13) = (     1          0         -1      )
                  (     0          1         -1      )
                  (     0          0         -1      )

 cart.    s(13) = (  0.0000000 -1.0000000  0.0000000 )
                  ( -1.0000000  0.0000000  0.0000000 )
                  (  0.0000000  0.0000000  1.0000000 )


      isym = 14     inv. 180 deg rotation - cart. axis [1,-1,0]  

 cryst.   s(14) = (     0          1          0      )
                  (     1          0          0      )
                  (     0          0          1      )

 cart.    s(14) = (  0.0000000  1.0000000  0.0000000 )
                  (  1.0000000  0.0000000  0.0000000 )
                  (  0.0000000  0.0000000  1.0000000 )


      isym = 15     inv.  90 deg rotation - cart. axis [0,0,-1]  

 cryst.   s(15) = (     0         -1          0      )
                  (     0         -1          1      )
                  (     1         -1          0      )

 cart.    s(15) = (  0.0000000 -1.0000000  0.0000000 )
                  (  1.0000000  0.0000000  0.0000000 )
                  (  0.0000000  0.0000000 -1.0000000 )


      isym = 16     inv.  90 deg rotation - cart. axis [0,0,1]   

 cryst.   s(16) = (    -1          0          1      )
                  (    -1          0          0      )
                  (    -1          1          0      )

 cart.    s(16) = (  0.0000000  1.0000000  0.0000000 )
                  ( -1.0000000  0.0000000  0.0000000 )
                  (  0.0000000  0.0000000 -1.0000000 )


      isym = 17     inv. 180 deg rotation - cart. axis [1,0,1]   

 cryst.   s(17) = (     1         -1          0      )
                  (     0         -1          0      )
                  (     0         -1          1      )

 cart.    s(17) = (  0.0000000  0.0000000 -1.0000000 )
                  (  0.0000000  1.0000000  0.0000000 )
                  ( -1.0000000  0.0000000  0.0000000 )


      isym = 18     inv. 180 deg rotation - cart. axis [-1,0,1]  

 cryst.   s(18) = (     0          0          1      )
                  (     0          1          0      )
                  (     1          0          0      )

 cart.    s(18) = (  0.0000000  0.0000000  1.0000000 )
                  (  0.0000000  1.0000000  0.0000000 )
                  (  1.0000000  0.0000000  0.0000000 )


      isym = 19     inv.  90 deg rotation - cart. axis [0,1,0]   

 cryst.   s(19) = (     0          0         -1      )
                  (     1          0         -1      )
                  (     0          1         -1      )

 cart.    s(19) = (  0.0000000  0.0000000 -1.0000000 )
                  (  0.0000000 -1.0000000  0.0000000 )
                  (  1.0000000  0.0000000  0.0000000 )


      isym = 20     inv.  90 deg rotation - cart. axis [0,-1,0]  

 cryst.   s(20) = (    -1          1          0      )
                  (    -1          0          1      )
                  (    -1          0          0      )

 cart.    s(20) = (  0.0000000  0.0000000  1.0000000 )
                  (  0.0000000 -1.0000000  0.0000000 )
                  ( -1.0000000  0.0000000  0.0000000 )


      isym = 21     inv. 180 deg rotation - cart. axis [0,1,1]   

 cryst.   s(21) = (    -1          0          0      )
                  (    -1          1          0      )
                  (    -1          0          1      )

 cart.    s(21) = (  1.0000000  0.0000000  0.0000000 )
                  (  0.0000000  0.0000000 -1.0000000 )
                  (  0.0000000 -1.0000000  0.0000000 )


      isym = 22     inv. 180 deg rotation - cart. axis [0,1,-1]  

 cryst.   s(22) = (     1          0          0      )
                  (     0          0          1      )
                  (     0          1          0      )

 cart.    s(22) = (  1.0000000  0.0000000  0.0000000 )
                  (  0.0000000  0.0000000  1.0000000 )
                  (  0.0000000  1.0000000  0.0000000 )


      isym = 23     inv.  90 deg rotation - cart. axis [-1,0,0]  

 cryst.   s(23) = (     0          1         -1      )
                  (     0          0         -1      )
                  (     1          0         -1      )

 cart.    s(23) = ( -1.0000000  0.0000000  0.0000000 )
                  (  0.0000000  0.0000000 -1.0000000 )
                  (  0.0000000  1.0000000  0.0000000 )


      isym = 24     inv.  90 deg rotation - cart. axis [1,0,0]   

 cryst.   s(24) = (     0         -1          1      )
                  (     1         -1          0      )
                  (     0         -1          0      )

 cart.    s(24) = ( -1.0000000  0.0000000  0.0000000 )
                  (  0.0000000  0.0000000  1.0000000 )
                  (  0.0000000 -1.0000000  0.0000000 )


     point group T_d (-43m) 
     there are  5 classes
     the character table:

       E     8C3   3C2   6S4   6s_d 
A_1    1.00  1.00  1.00  1.00  1.00
A_2    1.00  1.00  1.00 -1.00 -1.00
E      2.00 -1.00  2.00  0.00  0.00
T_1    3.00  0.00 -1.00  1.00 -1.00
T_2    3.00  0.00 -1.00 -1.00  1.00

     the symmetry operations in each class and the name of the first element:

     E        1
          identity                                               
     8C3      5    7    8    6   12    9   10   11
          120 deg rotation - cart. axis [-1,-1,-1]               
     3C2      2    3    4
          180 deg rotation - cart. axis [0,0,1]                  
     6S4     15   16   20   19   23   24
          inv.  90 deg rotation - cart. axis [0,0,-1]            
     6s_d    13   14   17   18   21   22
          inv. 180 deg rotation - cart. axis [1,1,0]             

   Cartesian axes

     site n.     atom                  positions (alat units)
         1        Mn     tau(   1) = (   1.0606602   1.0606602   1.0606602  )
         2        S      tau(   2) = (   0.0000000   0.0000000   0.0000000  )

   Crystallographic axes

     site n.     atom                  positions (cryst. coord.)
         1        Mn     tau(   1) = (  0.7500000  0.7500000  0.7500000  )
         2        S      tau(   2) = (  0.0000000  0.0000000  0.0000000  )

     number of k points=    10  Gaussian smearing, width (Ry)=  0.0100
                       cart. coord. in units 2pi/alat
        k(    1) = (   0.0000000   0.0000000   0.0000000), wk =   0.0080000
        k(    2) = (   0.1414214   0.1414214  -0.1414214), wk =   0.0640000
        k(    3) = (   0.2828427   0.2828427  -0.2828427), wk =   0.0640000
        k(    4) = (   0.2828427   0.0000000   0.0000000), wk =   0.0480000
        k(    5) = (   0.4242641   0.1414214  -0.1414214), wk =   0.1920000
        k(    6) = (  -0.1414214  -0.4242641   0.4242641), wk =   0.1920000
        k(    7) = (   0.0000000  -0.2828427   0.2828427), wk =   0.0960000
        k(    8) = (   0.5656854   0.0000000   0.0000000), wk =   0.0480000
        k(    9) = (   0.0000000  -0.5656854   0.5656854), wk =   0.0960000
        k(   10) = (  -0.1414214  -0.4242641   0.7071068), wk =   0.1920000

                       cryst. coord.
        k(    1) = (   0.0000000   0.0000000   0.0000000), wk =   0.0080000
        k(    2) = (   0.0000000   0.0000000   0.2000000), wk =   0.0640000
        k(    3) = (   0.0000000   0.0000000   0.4000000), wk =   0.0640000
        k(    4) = (   0.0000000   0.2000000   0.2000000), wk =   0.0480000
        k(    5) = (   0.0000000   0.2000000   0.4000000), wk =   0.1920000
        k(    6) = (   0.0000000   0.2000000  -0.4000000), wk =   0.1920000
        k(    7) = (   0.0000000   0.2000000  -0.2000000), wk =   0.0960000
        k(    8) = (   0.0000000   0.4000000   0.4000000), wk =   0.0480000
        k(    9) = (   0.0000000   0.4000000  -0.4000000), wk =   0.0960000
        k(   10) = (   0.2000000   0.4000000  -0.4000000), wk =   0.1920000

     Dense  grid:     8801 G-vectors     FFT dimensions: (  30,  30,  30)

     Smooth grid:     6375 G-vectors     FFT dimensions: (  25,  25,  25)

     Dynamical RAM for                 wfc:       0.03 MB

     Dynamical RAM for     wfc (w. buffer):       0.63 MB

     Dynamical RAM for           str. fact:       0.04 MB

     Dynamical RAM for           local pot:       0.00 MB

     Dynamical RAM for          nlocal pot:       0.07 MB

     Dynamical RAM for                qrad:       3.94 MB

     Dynamical RAM for          rho,v,vnew:       0.34 MB

     Dynamical RAM for               rhoin:       0.11 MB

     Dynamical RAM for            rho*nmix:       0.72 MB

     Dynamical RAM for           G-vectors:       0.09 MB

     Dynamical RAM for          h,s,v(r/c):       0.04 MB

     Dynamical RAM for          <psi|beta>:       0.01 MB

     Dynamical RAM for                 psi:       0.06 MB

     Dynamical RAM for                hpsi:       0.06 MB

     Dynamical RAM for                spsi:       0.06 MB

     Dynamical RAM for      wfcinit/wfcrot:       0.07 MB

     Dynamical RAM for           addusdens:       4.20 MB

     Dynamical RAM for          addusforce:       4.21 MB

     Dynamical RAM for         addusstress:       4.53 MB

     Estimated static dynamical RAM per process >       5.51 MB

     Estimated max dynamical RAM per process >      10.75 MB

     Estimated total dynamical RAM >      64.49 MB

     Check: negative core charge=   -0.000237
     Generating pointlists ...
     new r_m :   0.2526 (alat units)  1.8676 (a.u.) for type    1
     new r_m :   0.2526 (alat units)  1.8676 (a.u.) for type    2

     Initial potential from superposition of free atoms

     starting charge      20.9995, renormalised to      21.0000
     Starting wfcs are   14 randomized atomic wfcs +    1 random wfcs
     Checking if some PAW data can be deallocated... 
       PAW data deallocated on    3 nodes for type:  1
       PAW data deallocated on    3 nodes for type:  2

     total cpu time spent up to now is        1.0 secs

     Self-consistent Calculation

     iteration #  1     ecut=    30.00 Ry     beta= 0.70
     Davidson diagonalization with overlap

---- Real-time Memory Report at c_bands before calling an iterative solver
            60 MiB given to the printing process from OS
             0 MiB allocation reported by mallinfo(arena+hblkhd)
           835 MiB available memory on the node where the printing process lives
------------------
     ethr =  1.00E-02,  avg # of iterations =  4.9

     Threshold (ethr) on eigenvalues was too large:
     Diagonalizing with lowered threshold

     Davidson diagonalization with overlap

---- Real-time Memory Report at c_bands before calling an iterative solver
            60 MiB given to the printing process from OS
             0 MiB allocation reported by mallinfo(arena+hblkhd)
           839 MiB available memory on the node where the printing process lives
------------------
     ethr =  2.76E-04,  avg # of iterations =  2.6

     total cpu time spent up to now is        1.7 secs

     total energy              =    -352.73760814 Ry
     estimated scf accuracy    <       0.05740728 Ry

     total magnetization       =     4.10 Bohr mag/cell
     absolute magnetization    =     4.10 Bohr mag/cell

     iteration #  2     ecut=    30.00 Ry     beta= 0.70
     Davidson diagonalization with overlap

---- Real-time Memory Report at c_bands before calling an iterative solver
            62 MiB given to the printing process from OS
             0 MiB allocation reported by mallinfo(arena+hblkhd)
           787 MiB available memory on the node where the printing process lives
------------------
     ethr =  2.73E-04,  avg # of iterations =  2.0

     total cpu time spent up to now is        2.2 secs

     total energy              =    -352.75553183 Ry
     estimated scf accuracy    <       0.00726389 Ry

     total magnetization       =     4.40 Bohr mag/cell
     absolute magnetization    =     4.40 Bohr mag/cell

     iteration #  3     ecut=    30.00 Ry     beta= 0.70
     Davidson diagonalization with overlap

---- Real-time Memory Report at c_bands before calling an iterative solver
            63 MiB given to the printing process from OS
             0 MiB allocation reported by mallinfo(arena+hblkhd)
           807 MiB available memory on the node where the printing process lives
------------------
     ethr =  3.46E-05,  avg # of iterations =  2.2

     total cpu time spent up to now is        2.7 secs

     total energy              =    -352.75953340 Ry
     estimated scf accuracy    <       0.00339166 Ry

     total magnetization       =     4.60 Bohr mag/cell
     absolute magnetization    =     4.60 Bohr mag/cell

     iteration #  4     ecut=    30.00 Ry     beta= 0.70
     Davidson diagonalization with overlap

---- Real-time Memory Report at c_bands before calling an iterative solver
            63 MiB given to the printing process from OS
             0 MiB allocation reported by mallinfo(arena+hblkhd)
           808 MiB available memory on the node where the printing process lives
------------------
     ethr =  1.62E-05,  avg # of iterations =  3.0

     total cpu time spent up to now is        3.1 secs

     total energy              =    -352.76010536 Ry
     estimated scf accuracy    <       0.00110464 Ry

     total magnetization       =     4.67 Bohr mag/cell
     absolute magnetization    =     4.67 Bohr mag/cell

     iteration #  5     ecut=    30.00 Ry     beta= 0.70
     Davidson diagonalization with overlap

---- Real-time Memory Report at c_bands before calling an iterative solver
            63 MiB given to the printing process from OS
             0 MiB allocation reported by mallinfo(arena+hblkhd)
           811 MiB available memory on the node where the printing process lives
------------------
     ethr =  5.26E-06,  avg # of iterations =  3.0

     total cpu time spent up to now is        3.5 secs

     total energy              =    -352.76049238 Ry
     estimated scf accuracy    <       0.00075113 Ry

     total magnetization       =     4.70 Bohr mag/cell
     absolute magnetization    =     4.70 Bohr mag/cell

     iteration #  6     ecut=    30.00 Ry     beta= 0.70
     Davidson diagonalization with overlap

---- Real-time Memory Report at c_bands before calling an iterative solver
            63 MiB given to the printing process from OS
             0 MiB allocation reported by mallinfo(arena+hblkhd)
           838 MiB available memory on the node where the printing process lives
------------------
     ethr =  3.58E-06,  avg # of iterations =  1.6

     total cpu time spent up to now is        3.8 secs

     total energy              =    -352.76060851 Ry
     estimated scf accuracy    <       0.00001058 Ry

     total magnetization       =     4.72 Bohr mag/cell
     absolute magnetization    =     4.72 Bohr mag/cell

     iteration #  7     ecut=    30.00 Ry     beta= 0.70
     Davidson diagonalization with overlap

---- Real-time Memory Report at c_bands before calling an iterative solver
            63 MiB given to the printing process from OS
             0 MiB allocation reported by mallinfo(arena+hblkhd)
           836 MiB available memory on the node where the printing process lives
------------------
     ethr =  5.04E-08,  avg # of iterations =  4.1

     total cpu time spent up to now is        4.2 secs

     total energy              =    -352.76061585 Ry
     estimated scf accuracy    <       0.00000288 Ry

     total magnetization       =     4.72 Bohr mag/cell
     absolute magnetization    =     4.72 Bohr mag/cell

     iteration #  8     ecut=    30.00 Ry     beta= 0.70
     Davidson diagonalization with overlap

---- Real-time Memory Report at c_bands before calling an iterative solver
            63 MiB given to the printing process from OS
             0 MiB allocation reported by mallinfo(arena+hblkhd)
           834 MiB available memory on the node where the printing process lives
------------------
     ethr =  1.37E-08,  avg # of iterations =  1.9

     total cpu time spent up to now is        4.5 secs

     total energy              =    -352.76061655 Ry
     estimated scf accuracy    <       0.00000004 Ry

     total magnetization       =     4.72 Bohr mag/cell
     absolute magnetization    =     4.72 Bohr mag/cell

     iteration #  9     ecut=    30.00 Ry     beta= 0.70
     Davidson diagonalization with overlap

---- Real-time Memory Report at c_bands before calling an iterative solver
            63 MiB given to the printing process from OS
             0 MiB allocation reported by mallinfo(arena+hblkhd)
           839 MiB available memory on the node where the printing process lives
------------------
     ethr =  2.14E-10,  avg # of iterations =  4.0

     total cpu time spent up to now is        4.8 secs

     total energy              =    -352.76061656 Ry
     estimated scf accuracy    <          9.1E-09 Ry

     total magnetization       =     4.72 Bohr mag/cell
     absolute magnetization    =     4.72 Bohr mag/cell

     iteration # 10     ecut=    30.00 Ry     beta= 0.70
     Davidson diagonalization with overlap

---- Real-time Memory Report at c_bands before calling an iterative solver
            63 MiB given to the printing process from OS
             0 MiB allocation reported by mallinfo(arena+hblkhd)
           837 MiB available memory on the node where the printing process lives
------------------
     ethr =  4.32E-11,  avg # of iterations =  2.0

     Magnetic moment per site  (integrated on atomic sphere of radius R)
     atom   1 (R=0.253)  charge= 12.8992  magn=  3.9925
     atom   2 (R=0.253)  charge=  4.1418  magn=  0.1014

     total cpu time spent up to now is        5.1 secs

     End of self-consistent calculation

 ------ SPIN UP ------------


          k = 0.0000 0.0000 0.0000 (   821 PWs)   bands (ev):

   -74.4907 -43.2122 -43.2122 -43.2122  -6.2550   2.8582   2.8582   2.8582
     4.6654   4.6654   8.2462   8.2462   8.2462   9.0792  13.6953

     occupation numbers 
     1.0000   1.0000   1.0000   1.0000   1.0000   1.0000   1.0000   1.0000
     1.0000   1.0000   0.0000   0.0000   0.0000   0.0000   0.0000

          k = 0.1414 0.1414-0.1414 (   800 PWs)   bands (ev):

   -74.4903 -43.2131 -43.2120 -43.2120  -6.0266   2.5246   2.9691   2.9691
     4.6961   4.6961   6.7346   7.8986   7.8986  10.3957  13.6336

     occupation numbers 
     1.0000   1.0000   1.0000   1.0000   1.0000   1.0000   1.0000   1.0000
     1.0000   1.0000   1.0000   0.1289   0.1289   0.0000   0.0000

          k = 0.2828 0.2828-0.2828 (   796 PWs)   bands (ev):

   -74.4901 -43.2148 -43.2124 -43.2124  -5.6158   2.0483   3.0784   3.0784
     4.7881   4.7881   5.3193   7.2846   7.2846  11.0089  14.2389

     occupation numbers 
     1.0000   1.0000   1.0000   1.0000   1.0000   1.0000   1.0000   1.0000
     1.0000   1.0000   1.0000   1.0000   1.0000   0.0000   0.0000

          k = 0.2828 0.0000 0.0000 (   801 PWs)   bands (ev):

   -74.4903 -43.2130 -43.2124 -43.2124  -5.9516   2.4170   3.0351   3.0351
     4.5550   4.7809   7.0681   7.3394   7.3394  10.8466  12.7623

     occupation numbers 
     1.0000   1.0000   1.0000   1.0000   1.0000   1.0000   1.0000   1.0000
     1.0000   1.0000   1.0000   1.0000   1.0000   0.0000   0.0000

          k = 0.4243 0.1414-0.1414 (   797 PWs)   bands (ev):

   -74.4901 -43.2144 -43.2129 -43.2127  -5.5971   2.1506   3.0755   3.1805
     4.5968   4.8924   5.6361   6.7236   6.7738  11.6742  13.1883

     occupation numbers 
     1.0000   1.0000   1.0000   1.0000   1.0000   1.0000   1.0000   1.0000
     1.0000   1.0000   1.0000   1.0000   1.0000   0.0000   0.0000

          k =-0.1414-0.4243 0.4243 (   785 PWs)   bands (ev):

   -74.4899 -43.2147 -43.2131 -43.2125  -5.4473   2.2560   2.8704   3.2312
     4.7590   4.7882   5.2326   6.2188   6.9180  12.1222  13.3112

     occupation numbers 
     1.0000   1.0000   1.0000   1.0000   1.0000   1.0000   1.0000   1.0000
     1.0000   1.0000   1.0000   1.0000   1.0000   0.0000   0.0000

          k = 0.0000-0.2828 0.2828 (   797 PWs)   bands (ev):

   -74.4902 -43.2139 -43.2129 -43.2122  -5.7331   2.3229   2.9432   3.0882
     4.6192   4.8534   6.0712   6.4665   7.6204  11.8290  13.6975

     occupation numbers 
     1.0000   1.0000   1.0000   1.0000   1.0000   1.0000   1.0000   1.0000
     1.0000   1.0000   1.0000   1.0000   0.9608   0.0000   0.0000

          k = 0.5657 0.0000 0.0000 (   789 PWs)   bands (ev):

   -74.4900 -43.2147 -43.2131 -43.2131  -5.4081   1.8736   3.4556   3.4556
     4.5174   4.9408   5.6467   6.0519   6.0519  10.8313  12.4690

     occupation numbers 
     1.0000   1.0000   1.0000   1.0000   1.0000   1.0000   1.0000   1.0000
     1.0000   1.0000   1.0000   1.0000   1.0000   0.0000   0.0000

          k = 0.0000-0.5657 0.5657 (   794 PWs)   bands (ev):

   -74.4900 -43.2148 -43.2136 -43.2132  -5.3140   2.0636   3.2630   3.4470
     4.5637   4.8511   5.1035   5.7608   6.1175  11.4013  13.2008

     occupation numbers 
     1.0000   1.0000   1.0000   1.0000   1.0000   1.0000   1.0000   1.0000
     1.0000   1.0000   1.0000   1.0000   1.0000   0.0000   0.0000

          k =-0.1414-0.4243 0.7071 (   794 PWs)   bands (ev):

   -74.4900 -43.2146 -43.2136 -43.2131  -5.3676   2.3109   2.8668   3.4314
     4.6720   4.7620   5.3374   5.5647   6.4318  12.5028  13.6227

     occupation numbers 
     1.0000   1.0000   1.0000   1.0000   1.0000   1.0000   1.0000   1.0000
     1.0000   1.0000   1.0000   1.0000   1.0000   0.0000   0.0000

 ------ SPIN DOWN ----------


          k = 0.0000 0.0000 0.0000 (   821 PWs)   bands (ev):

   -70.0077 -38.7909 -38.7909 -38.7909  -5.9654   4.3588   4.3588   4.3588
     8.6215   8.6215   9.9446  10.9088  10.9088  10.9088  14.7193

     occupation numbers 
     1.0000   1.0000   1.0000   1.0000   1.0000   1.0000   1.0000   1.0000
     0.0000   0.0000   0.0000   0.0000   0.0000   0.0000   0.0000

          k = 0.1414 0.1414-0.1414 (   800 PWs)   bands (ev):

   -70.0073 -38.7924 -38.7908 -38.7908  -5.7500   3.6350   4.4061   4.4061
     8.5930   8.5930   9.8377  10.6666  10.6666  11.2740  14.4910

     occupation numbers 
     1.0000   1.0000   1.0000   1.0000   1.0000   1.0000   1.0000   1.0000
     0.0000   0.0000   0.0000   0.0000   0.0000   0.0000   0.0000

          k = 0.2828 0.2828-0.2828 (   796 PWs)   bands (ev):

   -70.0071 -38.7951 -38.7914 -38.7914  -5.3633   2.6773   4.4525   4.4525
     8.7077   8.7077   8.8611  10.0457  10.0457  12.0829  15.3667

     occupation numbers 
     1.0000   1.0000   1.0000   1.0000   1.0000   1.0000   1.0000   1.0000
     0.0000   0.0000   0.0000   0.0000   0.0000   0.0000   0.0000

          k = 0.2828 0.0000 0.0000 (   801 PWs)   bands (ev):

   -70.0073 -38.7923 -38.7913 -38.7913  -5.6793   3.5856   4.3563   4.3563
     8.2477   8.8033  10.1914  10.1914  10.2967  11.5781  13.9372

     occupation numbers 
     1.0000   1.0000   1.0000   1.0000   1.0000   1.0000   1.0000   1.0000
     0.0000   0.0000   0.0000   0.0000   0.0000   0.0000   0.0000

          k = 0.4243 0.1414-0.1414 (   797 PWs)   bands (ev):

   -70.0071 -38.7943 -38.7920 -38.7918  -5.3458   2.9741   4.2072   4.3889
     8.1465   8.9302   8.9770   9.6887  10.0186  12.7345  14.3398

     occupation numbers 
     1.0000   1.0000   1.0000   1.0000   1.0000   1.0000   1.0000   1.0000
     0.0001   0.0000   0.0000   0.0000   0.0000   0.0000   0.0000

          k =-0.1414-0.4243 0.4243 (   785 PWs)   bands (ev):

   -70.0069 -38.7949 -38.7925 -38.7916  -5.2052   2.8449   3.9102   4.4672
     8.2536   8.6515   8.8816   9.6118   9.9567  13.1914  14.4315

     occupation numbers 
     1.0000   1.0000   1.0000   1.0000   1.0000   1.0000   1.0000   1.0000
     0.0000   0.0000   0.0000   0.0000   0.0000   0.0000   0.0000

          k = 0.0000-0.2828 0.2828 (   797 PWs)   bands (ev):

   -70.0072 -38.7937 -38.7920 -38.7911  -5.4735   3.1944   4.0957   4.4811
     8.4007   8.7863   9.1686   9.7211  10.5332  12.7680  14.5877

     occupation numbers 
     1.0000   1.0000   1.0000   1.0000   1.0000   1.0000   1.0000   1.0000
     0.0000   0.0000   0.0000   0.0000   0.0000   0.0000   0.0000

          k = 0.5657 0.0000 0.0000 (   789 PWs)   bands (ev):

   -70.0070 -38.7949 -38.7923 -38.7923  -5.1688   2.7335   4.3681   4.3681
     7.7154   9.0348   9.0927   9.3175   9.3175  12.2896  13.9627

     occupation numbers 
     1.0000   1.0000   1.0000   1.0000   1.0000   1.0000   1.0000   1.0000
     0.7801   0.0000   0.0000   0.0000   0.0000   0.0000   0.0000

          k = 0.0000-0.5657 0.5657 (   794 PWs)   bands (ev):

   -70.0070 -38.7950 -38.7932 -38.7924  -5.0802   2.8745   3.8666   4.4056
     7.7173   8.6341   8.8150   9.4708   9.4981  12.8682  14.4882

     occupation numbers 
     1.0000   1.0000   1.0000   1.0000   1.0000   1.0000   1.0000   1.0000
     0.7743   0.0000   0.0000   0.0000   0.0000   0.0000   0.0000

          k =-0.1414-0.4243 0.7071 (   794 PWs)   bands (ev):

   -70.0070 -38.7947 -38.7931 -38.7923  -5.1303   3.0734   3.7108   4.3318
     7.8924   8.4124   9.0297   9.3510   9.8855  13.6811  14.9304

     occupation numbers 
     1.0000   1.0000   1.0000   1.0000   1.0000   1.0000   1.0000   1.0000
     0.1430   0.0000   0.0000   0.0000   0.0000   0.0000   0.0000

     the Fermi energy is     7.7897 ev

!    total energy              =    -352.76061656 Ry
     total all-electron energy =     -3115.619020 Ry
     estimated scf accuracy    <          2.0E-11 Ry
     smearing contrib. (-TS)   =      -0.00085949 Ry
     internal energy E=F+TS    =    -352.75975707 Ry

     The total energy is F=E-TS. E is the sum of the following terms:
     one-electron contribution =    -152.20644569 Ry
     hartree contribution      =      84.56968141 Ry
     xc contribution           =     -33.10231084 Ry
     ewald contribution        =    -128.25534586 Ry
     one-center paw contrib.   =    -123.76533610 Ry
      -> PAW hartree energy AE =     174.85963651 Ry
      -> PAW hartree energy PS =    -175.82892157 Ry
      -> PAW xc energy AE      =    -104.50677474 Ry
      -> PAW xc energy PS      =      27.84736149 Ry
      -> total E_H with PAW    =      83.60039635 Ry
      -> total E_XC with PAW   =    -109.76172409 Ry

     total magnetization       =     4.72 Bohr mag/cell
     absolute magnetization    =     4.72 Bohr mag/cell

     convergence has been achieved in  10 iterations

     Forces acting on atoms (cartesian axes, Ry/au):

     atom    1 type  1   force =     0.00000000    0.00000000    0.00000000
     atom    2 type  2   force =     0.00000000    0.00000000    0.00000000
     The non-local contrib.  to forces
     atom    1 type  1   force =     0.00000000   -0.00000000    0.00000000
     atom    2 type  2   force =     0.00000000    0.00000000    0.00000000
     The ionic contribution  to forces
     atom    1 type  1   force =    -0.00000000   -0.00000000   -0.00000000
     atom    2 type  2   force =     0.00000000    0.00000000    0.00000000
     The local contribution  to forces
     atom    1 type  1   force =     0.00000000    0.00000000    0.00000000
     atom    2 type  2   force =     0.00000000   -0.00000000   -0.00000000
     The core correction contribution to forces
     atom    1 type  1   force =     0.00000000    0.00000000    0.00000000
     atom    2 type  2   force =     0.00000000    0.00000000   -0.00000000
     The Hubbard contrib.    to forces
     atom    1 type  1   force =     0.00000000    0.00000000    0.00000000
     atom    2 type  2   force =     0.00000000    0.00000000    0.00000000
     The SCF correction term to forces
     atom    1 type  1   force =     0.00000000    0.00000000   -0.00000000
     atom    2 type  2   force =    -0.00000000   -0.00000000    0.00000000

     Total force =     0.000000     Total SCF correction =     0.000000


     Computing stress (Cartesian axis) and pressure

          total   stress  (Ry/bohr**3)                   (kbar)     P=     -355.86
  -0.00241912  -0.00000000  -0.00000000         -355.86       -0.00       -0.00
  -0.00000000  -0.00241912  -0.00000000           -0.00     -355.86       -0.00
  -0.00000000   0.00000000  -0.00241912           -0.00        0.00     -355.86

     kinetic stress (kbar)  15504.97     -0.00     -0.00
                               -0.00  15504.97      0.00
                                0.00      0.00  15504.97

     local   stress (kbar)  -2390.63      0.00      0.00
                                0.00  -2390.63      0.00
                                0.00      0.00  -2390.63

     nonloc. stress (kbar)   -909.70      0.00     -0.00
                                0.00   -909.70     -0.00
                               -0.00      0.00   -909.70

     hartree stress (kbar)  14511.88      0.00     -0.00
                                0.00  14511.88     -0.00
                               -0.00     -0.00  14511.88

     exc-cor stress (kbar)  -2386.82      0.00     -0.00
                                0.00  -2386.82      0.00
                               -0.00      0.00  -2386.82

     corecor stress (kbar)  -2677.38      0.00      0.00
                                0.00  -2677.38      0.00
                                0.00      0.00  -2677.38

     ewald   stress (kbar) -22008.19      0.00     -0.00
                                0.00 -22008.19     -0.00
                               -0.00     -0.00 -22008.19

     hubbard stress (kbar)      0.00      0.00      0.00
                                0.00      0.00      0.00
                                0.00      0.00      0.00

     DFT-D   stress (kbar)      0.00      0.00      0.00
                                0.00      0.00      0.00
                                0.00      0.00      0.00

     XDM     stress (kbar)      0.00      0.00      0.00
                                0.00      0.00      0.00
                                0.00      0.00      0.00

     dft-nl  stress (kbar)      0.00      0.00      0.00
                                0.00      0.00      0.00
                                0.00      0.00      0.00

     TS-vdW  stress (kbar)      0.00      0.00      0.00
                                0.00      0.00      0.00
                                0.00      0.00      0.00

     MDB     stress (kbar)      0.00      0.00      0.00
                                0.00      0.00      0.00
                                0.00      0.00      0.00

     3D-RISM stress (kbar)      0.00      0.00      0.00
                                0.00      0.00      0.00
                                0.00      0.00      0.00


     BFGS Geometry Optimization
     Energy error            =      0.0E+00 Ry
     Gradient error          =      0.0E+00 Ry/Bohr
     Cell gradient error     =      3.6E+02 kbar

     number of scf cycles    =   1
     number of bfgs steps    =   0

     enthalpy           new  =    -352.7606165637 Ry

     new trust radius        =       0.2044682652 bohr
ibrav =     -5
 celldm(1) =      6.94615477
 celldm(4) =      0.50000000
Input lattice vectors:
    -0.00000000     0.66434240     0.66434240
     0.66434240    -0.00000000     0.66434240
     0.66434240     0.66434240     0.00000000
New lattice vectors in INITIAL alat:
     0.00000000     0.66434240     0.66434240
     0.66434240     0.00000000     0.66434240
     0.66434240     0.66434240     0.00000000
New lattice vectors in NEW alat (for information only):
     0.00000000     0.70710678     0.70710678
     0.70710678     0.00000000     0.70710678
     0.70710678     0.70710678     0.00000000
Discrepancy in bohr =     0.000000    0.000000    0.000000
     new conv_thr            =            1.0E-10 Ry

     new unit-cell volume =    236.98364 a.u.^3 (    35.11735 Ang^3 )
     density =      4.11397 g/cm^3

CELL_PARAMETERS (alat=  7.39328566)
   0.000000000   0.664342400   0.664342400
   0.664342400   0.000000000   0.664342400
   0.664342400   0.664342400   0.000000000

ATOMIC_POSITIONS (crystal)
Mn               0.7500000000        0.7500000000        0.7500000000
S                0.0000000000        0.0000000000        0.0000000000



     Writing config-only to output data dir ./temp/mns.save/ :
     XML data file
     NEW-OLD atomic charge density approx. for the potential

     Check: negative core charge=   -0.000081
     Generating pointlists ...
     new r_m :   0.2373 (alat units)  1.7546 (a.u.) for type    1
     new r_m :   0.2373 (alat units)  1.7546 (a.u.) for type    2

     total cpu time spent up to now is        5.7 secs

     Self-consistent Calculation

     iteration #  1     ecut=    30.00 Ry     beta= 0.70
     Davidson diagonalization with overlap

---- Real-time Memory Report at c_bands before calling an iterative solver
            63 MiB given to the printing process from OS
             0 MiB allocation reported by mallinfo(arena+hblkhd)
           845 MiB available memory on the node where the printing process lives
------------------
     c_bands:  1 eigenvalues not converged
     c_bands:  1 eigenvalues not converged
     ethr =  1.00E-06,  avg # of iterations = 10.4

     total cpu time spent up to now is        6.2 secs

     total energy              =    -352.63857711 Ry
     estimated scf accuracy    <       0.17794698 Ry

     total magnetization       =     4.29 Bohr mag/cell
     absolute magnetization    =     4.29 Bohr mag/cell

     iteration #  2     ecut=    30.00 Ry     beta= 0.70
     Davidson diagonalization with overlap

---- Real-time Memory Report at c_bands before calling an iterative solver
            63 MiB given to the printing process from OS
             0 MiB allocation reported by mallinfo(arena+hblkhd)
           847 MiB available memory on the node where the printing process lives
------------------
     ethr =  8.47E-04,  avg # of iterations =  4.2

     total cpu time spent up to now is        6.6 secs

     total energy              =    -352.68209885 Ry
     estimated scf accuracy    <       1.10904302 Ry

     total magnetization       =     3.71 Bohr mag/cell
     absolute magnetization    =     3.72 Bohr mag/cell

     iteration #  3     ecut=    30.00 Ry     beta= 0.70
     Davidson diagonalization with overlap

---- Real-time Memory Report at c_bands before calling an iterative solver
            63 MiB given to the printing process from OS
             0 MiB allocation reported by mallinfo(arena+hblkhd)
           838 MiB available memory on the node where the printing process lives
------------------
     ethr =  8.47E-04,  avg # of iterations =  3.0

     total cpu time spent up to now is        7.0 secs

     total energy              =    -352.82321726 Ry
     estimated scf accuracy    <       0.02764021 Ry

     total magnetization       =     4.06 Bohr mag/cell
     absolute magnetization    =     4.06 Bohr mag/cell

     iteration #  4     ecut=    30.00 Ry     beta= 0.70
     Davidson diagonalization with overlap

---- Real-time Memory Report at c_bands before calling an iterative solver
            63 MiB given to the printing process from OS
             0 MiB allocation reported by mallinfo(arena+hblkhd)
           834 MiB available memory on the node where the printing process lives
------------------
     ethr =  1.32E-04,  avg # of iterations =  1.9

     total cpu time spent up to now is        7.3 secs

     total energy              =    -352.82832183 Ry
     estimated scf accuracy    <       0.01161726 Ry

     total magnetization       =     4.01 Bohr mag/cell
     absolute magnetization    =     4.01 Bohr mag/cell

     iteration #  5     ecut=    30.00 Ry     beta= 0.70
     Davidson diagonalization with overlap

---- Real-time Memory Report at c_bands before calling an iterative solver
            63 MiB given to the printing process from OS
             0 MiB allocation reported by mallinfo(arena+hblkhd)
           851 MiB available memory on the node where the printing process lives
------------------
     ethr =  5.53E-05,  avg # of iterations =  2.0

     total cpu time spent up to now is        7.6 secs

     total energy              =    -352.83009329 Ry
     estimated scf accuracy    <       0.00007348 Ry

     total magnetization       =     3.95 Bohr mag/cell
     absolute magnetization    =     3.95 Bohr mag/cell

     iteration #  6     ecut=    30.00 Ry     beta= 0.70
     Davidson diagonalization with overlap

---- Real-time Memory Report at c_bands before calling an iterative solver
            63 MiB given to the printing process from OS
             0 MiB allocation reported by mallinfo(arena+hblkhd)
           845 MiB available memory on the node where the printing process lives
------------------
     ethr =  3.50E-07,  avg # of iterations =  5.4

     total cpu time spent up to now is        8.0 secs

     total energy              =    -352.83030137 Ry
     estimated scf accuracy    <       0.00025062 Ry

     total magnetization       =     3.93 Bohr mag/cell
     absolute magnetization    =     3.94 Bohr mag/cell

     iteration #  7     ecut=    30.00 Ry     beta= 0.70
     Davidson diagonalization with overlap

---- Real-time Memory Report at c_bands before calling an iterative solver
            63 MiB given to the printing process from OS
             0 MiB allocation reported by mallinfo(arena+hblkhd)
           843 MiB available memory on the node where the printing process lives
------------------
     ethr =  3.50E-07,  avg # of iterations =  1.9

     total cpu time spent up to now is        8.3 secs

     total energy              =    -352.83031904 Ry
     estimated scf accuracy    <       0.00002293 Ry

     total magnetization       =     3.94 Bohr mag/cell
     absolute magnetization    =     3.94 Bohr mag/cell

     iteration #  8     ecut=    30.00 Ry     beta= 0.70
     Davidson diagonalization with overlap

---- Real-time Memory Report at c_bands before calling an iterative solver
            63 MiB given to the printing process from OS
             0 MiB allocation reported by mallinfo(arena+hblkhd)
           897 MiB available memory on the node where the printing process lives
------------------
     ethr =  1.09E-07,  avg # of iterations =  1.8

     total cpu time spent up to now is        8.6 secs

     total energy              =    -352.83032204 Ry
     estimated scf accuracy    <       0.00000035 Ry

     total magnetization       =     3.94 Bohr mag/cell
     absolute magnetization    =     3.94 Bohr mag/cell

     iteration #  9     ecut=    30.00 Ry     beta= 0.70
     Davidson diagonalization with overlap

---- Real-time Memory Report at c_bands before calling an iterative solver
            63 MiB given to the printing process from OS
             0 MiB allocation reported by mallinfo(arena+hblkhd)
           874 MiB available memory on the node where the printing process lives
------------------
     ethr =  1.64E-09,  avg # of iterations =  4.8

     total cpu time spent up to now is        8.9 secs

     total energy              =    -352.83032234 Ry
     estimated scf accuracy    <       0.00000002 Ry

     total magnetization       =     3.94 Bohr mag/cell
     absolute magnetization    =     3.94 Bohr mag/cell

     iteration # 10     ecut=    30.00 Ry     beta= 0.70
     Davidson diagonalization with overlap

---- Real-time Memory Report at c_bands before calling an iterative solver
            63 MiB given to the printing process from OS
             0 MiB allocation reported by mallinfo(arena+hblkhd)
           865 MiB available memory on the node where the printing process lives
------------------
     ethr =  7.16E-11,  avg # of iterations =  2.5

     total cpu time spent up to now is        9.3 secs

     total energy              =    -352.83032235 Ry
     estimated scf accuracy    <          1.9E-09 Ry

     total magnetization       =     3.94 Bohr mag/cell
     absolute magnetization    =     3.94 Bohr mag/cell

     iteration # 11     ecut=    30.00 Ry     beta= 0.70
     Davidson diagonalization with overlap

---- Real-time Memory Report at c_bands before calling an iterative solver
            63 MiB given to the printing process from OS
             0 MiB allocation reported by mallinfo(arena+hblkhd)
           882 MiB available memory on the node where the printing process lives
------------------
     ethr =  9.26E-12,  avg # of iterations =  2.3

     total cpu time spent up to now is        9.6 secs

     total energy              =    -352.83032235 Ry
     estimated scf accuracy    <          7.9E-10 Ry

     total magnetization       =     3.94 Bohr mag/cell
     absolute magnetization    =     3.94 Bohr mag/cell

     iteration # 12     ecut=    30.00 Ry     beta= 0.70
     Davidson diagonalization with overlap

---- Real-time Memory Report at c_bands before calling an iterative solver
            63 MiB given to the printing process from OS
             0 MiB allocation reported by mallinfo(arena+hblkhd)
           884 MiB available memory on the node where the printing process lives
------------------
     ethr =  3.75E-12,  avg # of iterations =  1.8

     Magnetic moment per site  (integrated on atomic sphere of radius R)
     atom   1 (R=0.237)  charge= 12.7447  magn=  3.3354
     atom   2 (R=0.237)  charge=  3.7796  magn=  0.0479

     total cpu time spent up to now is        9.9 secs

     End of self-consistent calculation

 ------ SPIN UP ------------


          k = 0.0000 0.0000 0.0000 (   821 PWs)   bands (ev):

   -71.4413 -40.1984 -40.1984 -40.1984  -4.9605   4.7103   4.7103   4.7103
     7.1663   7.1663  11.5112  11.5112  11.5112  12.2903  16.5065

     occupation numbers 
     1.0000   1.0000   1.0000   1.0000   1.0000   1.0000   1.0000   1.0000
     1.0000   1.0000   0.0000   0.0000   0.0000   0.0000   0.0000

          k = 0.1505 0.1505-0.1505 (   800 PWs)   bands (ev):

   -71.4409 -40.2019 -40.1986 -40.1986  -4.6436   4.2371   4.8251   4.8251
     7.1581   7.1581   9.7688  11.0413  11.0413  13.6235  16.5718

     occupation numbers 
     1.0000   1.0000   1.0000   1.0000   1.0000   1.0000   1.0000   1.0000
     1.0000   1.0000   0.9743   0.0000   0.0000   0.0000   0.0000

          k = 0.3010 0.3010-0.3010 (   796 PWs)   bands (ev):

   -71.4405 -40.2074 -40.1997 -40.1997  -4.0554   3.5359   4.9562   4.9562
     7.3088   7.3088   8.0148  10.2352  10.2352  14.0811  17.1342

     occupation numbers 
     1.0000   1.0000   1.0000   1.0000   1.0000   1.0000   1.0000   1.0000
     1.0000   1.0000   1.0000   0.0019   0.0019   0.0000   0.0000

          k = 0.3010 0.0000 0.0000 (   801 PWs)   bands (ev):

   -71.4408 -40.2016 -40.1995 -40.1995  -4.5385   4.1108   4.8958   4.8958
     6.9433   7.3032  10.2971  10.3130  10.3130  13.9330  15.6937

     occupation numbers 
     1.0000   1.0000   1.0000   1.0000   1.0000   1.0000   1.0000   1.0000
     1.0000   1.0000   0.0002   0.0001   0.0001   0.0000   0.0000

          k = 0.4516 0.1505-0.1505 (   797 PWs)   bands (ev):

   -71.4405 -40.2059 -40.2010 -40.2005  -4.0322   3.7040   4.9127   5.0767
     7.0050   7.4249   8.3507   9.5532   9.7508  14.6503  16.3288

     occupation numbers 
     1.0000   1.0000   1.0000   1.0000   1.0000   1.0000   1.0000   1.0000
     1.0000   1.0000   1.0000   1.0000   0.9836   0.0000   0.0000

          k =-0.1505-0.4516 0.4516 (   785 PWs)   bands (ev):

   -71.4401 -40.2070 -40.2020 -40.2002  -3.8130   3.7668   4.6252   5.1196
     7.2104   7.2807   7.8528   9.0379   9.7777  15.0387  16.4740

     occupation numbers 
     1.0000   1.0000   1.0000   1.0000   1.0000   1.0000   1.0000   1.0000
     1.0000   1.0000   1.0000   1.0000   0.9682   0.0000   0.0000

          k = 0.0000-0.3010 0.3010 (   797 PWs)   bands (ev):

   -71.4406 -40.2046 -40.2010 -40.1992  -4.2278   3.9373   4.7428   4.9796
     7.0499   7.3589   8.9335   9.2876  10.7131  15.2402  16.4725

     occupation numbers 
     1.0000   1.0000   1.0000   1.0000   1.0000   1.0000   1.0000   1.0000
     1.0000   1.0000   1.0000   1.0000   0.0000   0.0000   0.0000

          k = 0.6021 0.0000 0.0000 (   789 PWs)   bands (ev):

   -71.4402 -40.2071 -40.2017 -40.2017  -3.7574   3.3573   5.3618   5.3618
     6.8565   7.5245   8.4043   8.6985   8.6985  13.6834  15.3519

     occupation numbers 
     1.0000   1.0000   1.0000   1.0000   1.0000   1.0000   1.0000   1.0000
     1.0000   1.0000   1.0000   1.0000   1.0000   0.0000   0.0000

          k = 0.0000-0.6021 0.6021 (   794 PWs)   bands (ev):

   -71.4402 -40.2072 -40.2034 -40.2019  -3.6186   3.5646   5.0440   5.3722
     6.8755   7.4164   7.7070   8.5220   8.8230  14.2637  16.2546

     occupation numbers 
     1.0000   1.0000   1.0000   1.0000   1.0000   1.0000   1.0000   1.0000
     1.0000   1.0000   1.0000   1.0000   1.0000   0.0000   0.0000

          k =-0.1505-0.4516 0.7526 (   794 PWs)   bands (ev):

   -71.4402 -40.2065 -40.2034 -40.2015  -3.6983   3.8590   4.5985   5.3379
     7.0430   7.2445   7.8808   8.3950   9.2798  15.4383  16.8849

     occupation numbers 
     1.0000   1.0000   1.0000   1.0000   1.0000   1.0000   1.0000   1.0000
     1.0000   1.0000   1.0000   1.0000   1.0000   0.0000   0.0000

 ------ SPIN DOWN ----------


          k = 0.0000 0.0000 0.0000 (   821 PWs)   bands (ev):

   -67.5945 -36.4214 -36.4214 -36.4214  -4.7193   5.9245   5.9245   5.9245
    10.5962  10.5962  12.8319  13.6785  13.6785  13.6785  17.3847

     occupation numbers 
     1.0000   1.0000   1.0000   1.0000   1.0000   1.0000   1.0000   1.0000
     0.0000   0.0000   0.0000   0.0000   0.0000   0.0000   0.0000

          k = 0.1505 0.1505-0.1505 (   800 PWs)   bands (ev):

   -67.5940 -36.4261 -36.4217 -36.4217  -4.4136   5.1372   6.0021   6.0021
    10.5136  10.5136  12.2572  13.3178  13.3178  14.2585  17.2222

     occupation numbers 
     1.0000   1.0000   1.0000   1.0000   1.0000   1.0000   1.0000   1.0000
     0.0000   0.0000   0.0000   0.0000   0.0000   0.0000   0.0000

          k = 0.3010 0.3010-0.3010 (   796 PWs)   bands (ev):

   -67.5935 -36.4338 -36.4232 -36.4232  -3.8470   4.0419   6.0978   6.0978
    10.6772  10.6772  10.8417  12.4684  12.4684  14.9263  18.1549

     occupation numbers 
     1.0000   1.0000   1.0000   1.0000   1.0000   1.0000   1.0000   1.0000
     0.0000   0.0000   0.0000   0.0000   0.0000   0.0000   0.0000

          k = 0.3010 0.0000 0.0000 (   801 PWs)   bands (ev):

   -67.5939 -36.4259 -36.4230 -36.4230  -4.3124   5.0705   5.9735   5.9735
    10.0428  10.8166  12.6376  12.6376  12.9903  14.4072  16.6868

     occupation numbers 
     1.0000   1.0000   1.0000   1.0000   1.0000   1.0000   1.0000   1.0000
     0.1838   0.0000   0.0000   0.0000   0.0000   0.0000   0.0000

          k = 0.4516 0.1505-0.1505 (   797 PWs)   bands (ev):

   -67.5935 -36.4317 -36.4250 -36.4243  -3.8251   4.3831   5.8434   6.0653
     9.9077  10.9469  10.9957  11.9794  12.5196  15.5837  17.2175

     occupation numbers 
     1.0000   1.0000   1.0000   1.0000   1.0000   1.0000   1.0000   1.0000
     0.6929   0.0000   0.0000   0.0000   0.0000   0.0000   0.0000

          k =-0.1505-0.4516 0.4516 (   785 PWs)   bands (ev):

   -67.5932 -36.4334 -36.4264 -36.4239  -3.6140   4.2466   5.4914   6.1557
    10.0141  10.5570  10.8780  11.8844  12.3276  15.9286  17.4228

     occupation numbers 
     1.0000   1.0000   1.0000   1.0000   1.0000   1.0000   1.0000   1.0000
     0.2734   0.0000   0.0000   0.0000   0.0000   0.0000   0.0000

          k = 0.0000-0.3010 0.3010 (   797 PWs)   bands (ev):

   -67.5936 -36.4299 -36.4250 -36.4225  -4.0130   4.6470   5.6892   6.1292
    10.2466  10.7480  11.2787  12.0758  13.1742  15.9504  17.1545

     occupation numbers 
     1.0000   1.0000   1.0000   1.0000   1.0000   1.0000   1.0000   1.0000
     0.0013   0.0000   0.0000   0.0000   0.0000   0.0000   0.0000

          k = 0.6021 0.0000 0.0000 (   789 PWs)   bands (ev):

   -67.5932 -36.4335 -36.4259 -36.4259  -3.5621   4.0835   6.1060   6.1060
     9.3015  11.1807  11.1956  11.3696  11.3696  15.0667  16.7453

     occupation numbers 
     1.0000   1.0000   1.0000   1.0000   1.0000   1.0000   1.0000   1.0000
     1.0000   0.0000   0.0000   0.0000   0.0000   0.0000   0.0000

          k = 0.0000-0.6021 0.6021 (   794 PWs)   bands (ev):

   -67.5932 -36.4336 -36.4282 -36.4260  -3.4282   4.2563   5.5153   6.1541
     9.2890  10.5828  10.7835  11.6835  11.7276  15.6277  17.3718

     occupation numbers 
     1.0000   1.0000   1.0000   1.0000   1.0000   1.0000   1.0000   1.0000
     1.0000   0.0000   0.0000   0.0000   0.0000   0.0000   0.0000

          k =-0.1505-0.4516 0.7526 (   794 PWs)   bands (ev):

   -67.5932 -36.4326 -36.4282 -36.4256  -3.5042   4.5047   5.2911   6.0543
     9.5245  10.2584  11.1229  11.5254  12.2672  16.4527  17.6816

     occupation numbers 
     1.0000   1.0000   1.0000   1.0000   1.0000   1.0000   1.0000   1.0000
     1.0000   0.0008   0.0000   0.0000   0.0000   0.0000   0.0000

     the Fermi energy is     9.9562 ev

!    total energy              =    -352.83032235 Ry
     total all-electron energy =     -3115.688726 Ry
     estimated scf accuracy    <          2.7E-11 Ry
     smearing contrib. (-TS)   =      -0.00121118 Ry
     internal energy E=F+TS    =    -352.82911117 Ry

     The total energy is F=E-TS. E is the sum of the following terms:
     one-electron contribution =    -139.26061098 Ry
     hartree contribution      =      80.01415701 Ry
     xc contribution           =     -33.21403389 Ry
     ewald contribution        =    -136.51126993 Ry
     one-center paw contrib.   =    -123.85735338 Ry
      -> PAW hartree energy AE =     170.17232662 Ry
      -> PAW hartree energy PS =    -171.23092953 Ry
      -> PAW xc energy AE      =    -104.13378181 Ry
      -> PAW xc energy PS      =      27.47591838 Ry
      -> total E_H with PAW    =      78.95555410 Ry
      -> total E_XC with PAW   =    -109.87189732 Ry

     total magnetization       =     3.94 Bohr mag/cell
     absolute magnetization    =     3.94 Bohr mag/cell

     convergence has been achieved in  12 iterations

     Forces acting on atoms (cartesian axes, Ry/au):

     atom    1 type  1   force =     0.00000000   -0.00000000    0.00000000
     atom    2 type  2   force =     0.00000000   -0.00000000    0.00000000
     The non-local contrib.  to forces
     atom    1 type  1   force =     0.00000000    0.00000000    0.00000000
     atom    2 type  2   force =     0.00000000    0.00000000   -0.00000000
     The ionic contribution  to forces
     atom    1 type  1   force =    -0.00000000   -0.00000000   -0.00000000
     atom    2 type  2   force =    -0.00000000    0.00000000    0.00000000
     The local contribution  to forces
     atom    1 type  1   force =     0.00000000    0.00000000    0.00000000
     atom    2 type  2   force =    -0.00000000    0.00000000    0.00000000
     The core correction contribution to forces
     atom    1 type  1   force =     0.00000000    0.00000000    0.00000000
     atom    2 type  2   force =     0.00000000   -0.00000000    0.00000000
     The Hubbard contrib.    to forces
     atom    1 type  1   force =     0.00000000    0.00000000    0.00000000
     atom    2 type  2   force =     0.00000000    0.00000000    0.00000000
     The SCF correction term to forces
     atom    1 type  1   force =    -0.00000000   -0.00000000    0.00000000
     atom    2 type  2   force =    -0.00000000   -0.00000000   -0.00000000

     Total force =     0.000000     Total SCF correction =     0.000000


     Computing stress (Cartesian axis) and pressure

          total   stress  (Ry/bohr**3)                   (kbar)     P=      -51.13
  -0.00034755   0.00000000   0.00000000          -51.13        0.00        0.00
   0.00000000  -0.00034755   0.00000000            0.00      -51.13        0.00
   0.00000000   0.00000000  -0.00034755            0.00        0.00      -51.13

     kinetic stress (kbar)  18728.42      0.00      0.00
                                0.00  18728.42     -0.00
                                0.00     -0.00  18728.42

     local   stress (kbar)    -85.49      0.00      0.00
                                0.00    -85.49      0.00
                                0.00      0.00    -85.49

     nonloc. stress (kbar)   -817.32     -0.00     -0.00
                               -0.00   -817.32      0.00
                                0.00     -0.00   -817.32

     hartree stress (kbar)  16555.98      0.00     -0.00
                                0.00  16555.98      0.00
                               -0.00      0.00  16555.98

     exc-cor stress (kbar)  -2892.58      0.00     -0.00
                                0.00  -2892.58     -0.00
                               -0.00     -0.00  -2892.58

     corecor stress (kbar)  -3294.16     -0.00      0.00
                               -0.00  -3294.16      0.00
                                0.00      0.00  -3294.16

     ewald   stress (kbar) -28245.97     -0.00     -0.00
                               -0.00 -28245.97     -0.00
                               -0.00     -0.00 -28245.97

     hubbard stress (kbar)      0.00      0.00      0.00
                                0.00      0.00      0.00
                                0.00      0.00      0.00

     DFT-D   stress (kbar)      0.00      0.00      0.00
                                0.00      0.00      0.00
                                0.00      0.00      0.00

     XDM     stress (kbar)      0.00      0.00      0.00
                                0.00      0.00      0.00
                                0.00      0.00      0.00

     dft-nl  stress (kbar)      0.00      0.00      0.00
                                0.00      0.00      0.00
                                0.00      0.00      0.00

     TS-vdW  stress (kbar)      0.00      0.00      0.00
                                0.00      0.00      0.00
                                0.00      0.00      0.00

     MDB     stress (kbar)      0.00      0.00      0.00
                                0.00      0.00      0.00
                                0.00      0.00      0.00

     3D-RISM stress (kbar)      0.00      0.00      0.00
                                0.00      0.00      0.00
                                0.00      0.00      0.00

     Energy error            =      7.0E-02 Ry
     Gradient error          =      1.6E-30 Ry/Bohr
     Cell gradient error     =      5.1E+01 kbar

     number of scf cycles    =   2
     number of bfgs steps    =   1

     enthalpy           old  =    -352.7606165637 Ry
     enthalpy           new  =    -352.8303223500 Ry

     CASE: enthalpy          _new < enthalpy          _old

     new trust radius        =       0.0287834537 bohr
ibrav =     -5
 celldm(1) =      6.88121688
 celldm(4) =      0.50000000
Input lattice vectors:
     0.00000000     0.65813163     0.65813163
     0.65813163     0.00000000     0.65813163
     0.65813163     0.65813163     0.00000000
New lattice vectors in INITIAL alat:
     0.00000000     0.65813163     0.65813163
     0.65813163     0.00000000     0.65813163
     0.65813163     0.65813163     0.00000000
New lattice vectors in NEW alat (for information only):
     0.00000000     0.70710678     0.70710678
     0.70710678     0.00000000     0.70710678
     0.70710678     0.70710678     0.00000000
Discrepancy in bohr =     0.000000    0.000000    0.000000
     new conv_thr            =            1.0E-12 Ry

     new unit-cell volume =    230.39908 a.u.^3 (    34.14162 Ang^3 )
     density =      4.23155 g/cm^3

CELL_PARAMETERS (alat=  7.39328566)
   0.000000000   0.658131627   0.658131627
   0.658131627   0.000000000   0.658131627
   0.658131627   0.658131627   0.000000000

ATOMIC_POSITIONS (crystal)
Mn               0.7500000000        0.7500000000        0.7500000000
S               -0.0000000000        0.0000000000       -0.0000000000



     Writing config-only to output data dir ./temp/mns.save/ :
     XML data file
     NEW-OLD atomic charge density approx. for the potential

     Check: negative core charge=   -0.000081
     Generating pointlists ...

     total cpu time spent up to now is       10.4 secs

     Self-consistent Calculation

     iteration #  1     ecut=    30.00 Ry     beta= 0.70
     Davidson diagonalization with overlap

---- Real-time Memory Report at c_bands before calling an iterative solver
            63 MiB given to the printing process from OS
             0 MiB allocation reported by mallinfo(arena+hblkhd)
           877 MiB available memory on the node where the printing process lives
------------------
     ethr =  1.00E-06,  avg # of iterations =  5.8

     total cpu time spent up to now is       10.9 secs

     total energy              =    -352.82848170 Ry
     estimated scf accuracy    <       0.00252083 Ry

     total magnetization       =     3.87 Bohr mag/cell
     absolute magnetization    =     3.87 Bohr mag/cell

     iteration #  2     ecut=    30.00 Ry     beta= 0.70
     Davidson diagonalization with overlap

---- Real-time Memory Report at c_bands before calling an iterative solver
            63 MiB given to the printing process from OS
             0 MiB allocation reported by mallinfo(arena+hblkhd)
           871 MiB available memory on the node where the printing process lives
------------------
     ethr =  1.20E-05,  avg # of iterations =  4.0

     total cpu time spent up to now is       11.3 secs

     total energy              =    -352.82929547 Ry
     estimated scf accuracy    <       0.01759771 Ry

     total magnetization       =     3.81 Bohr mag/cell
     absolute magnetization    =     3.81 Bohr mag/cell

     iteration #  3     ecut=    30.00 Ry     beta= 0.70
     Davidson diagonalization with overlap

---- Real-time Memory Report at c_bands before calling an iterative solver
            63 MiB given to the printing process from OS
             0 MiB allocation reported by mallinfo(arena+hblkhd)
           876 MiB available memory on the node where the printing process lives
------------------
     ethr =  1.20E-05,  avg # of iterations =  2.8

     total cpu time spent up to now is       11.6 secs

     total energy              =    -352.83143099 Ry
     estimated scf accuracy    <       0.00070616 Ry

     total magnetization       =     3.79 Bohr mag/cell
     absolute magnetization    =     3.79 Bohr mag/cell

     iteration #  4     ecut=    30.00 Ry     beta= 0.70
     Davidson diagonalization with overlap

---- Real-time Memory Report at c_bands before calling an iterative solver
            63 MiB given to the printing process from OS
             0 MiB allocation reported by mallinfo(arena+hblkhd)
           873 MiB available memory on the node where the printing process lives
------------------
     ethr =  3.36E-06,  avg # of iterations =  1.1

     total cpu time spent up to now is       11.9 secs

     total energy              =    -352.83164517 Ry
     estimated scf accuracy    <       0.00043589 Ry

     total magnetization       =     3.76 Bohr mag/cell
     absolute magnetization    =     3.77 Bohr mag/cell

     iteration #  5     ecut=    30.00 Ry     beta= 0.70
     Davidson diagonalization with overlap

---- Real-time Memory Report at c_bands before calling an iterative solver
            63 MiB given to the printing process from OS
             0 MiB allocation reported by mallinfo(arena+hblkhd)
           875 MiB available memory on the node where the printing process lives
------------------
     ethr =  2.08E-06,  avg # of iterations =  1.6

     total cpu time spent up to now is       12.2 secs

     total energy              =    -352.83118816 Ry
     estimated scf accuracy    <       0.00010584 Ry

     total magnetization       =     3.65 Bohr mag/cell
     absolute magnetization    =     3.66 Bohr mag/cell

     iteration #  6     ecut=    30.00 Ry     beta= 0.70
     Davidson diagonalization with overlap

---- Real-time Memory Report at c_bands before calling an iterative solver
            63 MiB given to the printing process from OS
             0 MiB allocation reported by mallinfo(arena+hblkhd)
           896 MiB available memory on the node where the printing process lives
------------------
     ethr =  5.04E-07,  avg # of iterations =  2.8

     total cpu time spent up to now is       12.5 secs

     total energy              =    -352.83165299 Ry
     estimated scf accuracy    <       0.00032666 Ry

     total magnetization       =     3.44 Bohr mag/cell
     absolute magnetization    =     3.45 Bohr mag/cell

     iteration #  7     ecut=    30.00 Ry     beta= 0.70
     Davidson diagonalization with overlap

---- Real-time Memory Report at c_bands before calling an iterative solver
            63 MiB given to the printing process from OS
             0 MiB allocation reported by mallinfo(arena+hblkhd)
           886 MiB available memory on the node where the printing process lives
------------------
     ethr =  5.04E-07,  avg # of iterations =  2.2

     total cpu time spent up to now is       12.9 secs

     total energy              =    -352.83196181 Ry
     estimated scf accuracy    <       0.00017457 Ry

     total magnetization       =     3.28 Bohr mag/cell
     absolute magnetization    =     3.30 Bohr mag/cell

     iteration #  8     ecut=    30.00 Ry     beta= 0.70
     Davidson diagonalization with overlap

---- Real-time Memory Report at c_bands before calling an iterative solver
            64 MiB given to the printing process from OS
             0 MiB allocation reported by mallinfo(arena+hblkhd)
           888 MiB available memory on the node where the printing process lives
------------------
     ethr =  5.04E-07,  avg # of iterations =  2.0

     total cpu time spent up to now is       13.2 secs

     total energy              =    -352.83212773 Ry
     estimated scf accuracy    <       0.00000112 Ry

     total magnetization       =     3.38 Bohr mag/cell
     absolute magnetization    =     3.39 Bohr mag/cell

     iteration #  9     ecut=    30.00 Ry     beta= 0.70
     Davidson diagonalization with overlap

---- Real-time Memory Report at c_bands before calling an iterative solver
            64 MiB given to the printing process from OS
             0 MiB allocation reported by mallinfo(arena+hblkhd)
           894 MiB available memory on the node where the printing process lives
------------------
     ethr =  5.36E-09,  avg # of iterations =  4.5

     total cpu time spent up to now is       13.5 secs

     total energy              =    -352.83212947 Ry
     estimated scf accuracy    <       0.00000047 Ry

     total magnetization       =     3.38 Bohr mag/cell
     absolute magnetization    =     3.38 Bohr mag/cell

     iteration # 10     ecut=    30.00 Ry     beta= 0.70
     Davidson diagonalization with overlap

---- Real-time Memory Report at c_bands before calling an iterative solver
            64 MiB given to the printing process from OS
             0 MiB allocation reported by mallinfo(arena+hblkhd)
           884 MiB available memory on the node where the printing process lives
------------------
     ethr =  2.23E-09,  avg # of iterations =  1.6

     total cpu time spent up to now is       13.8 secs

     total energy              =    -352.83212994 Ry
     estimated scf accuracy    <       0.00000020 Ry

     total magnetization       =     3.38 Bohr mag/cell
     absolute magnetization    =     3.39 Bohr mag/cell

     iteration # 11     ecut=    30.00 Ry     beta= 0.70
     Davidson diagonalization with overlap

---- Real-time Memory Report at c_bands before calling an iterative solver
            64 MiB given to the printing process from OS
             0 MiB allocation reported by mallinfo(arena+hblkhd)
           889 MiB available memory on the node where the printing process lives
------------------
     ethr =  9.53E-10,  avg # of iterations =  2.5

     total cpu time spent up to now is       14.2 secs

     total energy              =    -352.83213014 Ry
     estimated scf accuracy    <       0.00000002 Ry

     total magnetization       =     3.38 Bohr mag/cell
     absolute magnetization    =     3.39 Bohr mag/cell

     iteration # 12     ecut=    30.00 Ry     beta= 0.70
     Davidson diagonalization with overlap

---- Real-time Memory Report at c_bands before calling an iterative solver
            64 MiB given to the printing process from OS
             0 MiB allocation reported by mallinfo(arena+hblkhd)
           880 MiB available memory on the node where the printing process lives
------------------
     ethr =  7.25E-11,  avg # of iterations =  3.4

     total cpu time spent up to now is       14.5 secs

     total energy              =    -352.83213019 Ry
     estimated scf accuracy    <          1.7E-09 Ry

     total magnetization       =     3.38 Bohr mag/cell
     absolute magnetization    =     3.39 Bohr mag/cell

     iteration # 13     ecut=    30.00 Ry     beta= 0.70
     Davidson diagonalization with overlap

---- Real-time Memory Report at c_bands before calling an iterative solver
            64 MiB given to the printing process from OS
             0 MiB allocation reported by mallinfo(arena+hblkhd)
           884 MiB available memory on the node where the printing process lives
------------------
     ethr =  8.32E-12,  avg # of iterations =  2.6

     total cpu time spent up to now is       14.9 secs

     total energy              =    -352.83213019 Ry
     estimated scf accuracy    <          8.7E-10 Ry

     total magnetization       =     3.38 Bohr mag/cell
     absolute magnetization    =     3.39 Bohr mag/cell

     iteration # 14     ecut=    30.00 Ry     beta= 0.70
     Davidson diagonalization with overlap

---- Real-time Memory Report at c_bands before calling an iterative solver
            64 MiB given to the printing process from OS
             0 MiB allocation reported by mallinfo(arena+hblkhd)
           880 MiB available memory on the node where the printing process lives
------------------
     ethr =  4.14E-12,  avg # of iterations =  1.4

     total cpu time spent up to now is       15.2 secs

     total energy              =    -352.83213019 Ry
     estimated scf accuracy    <          3.5E-11 Ry

     total magnetization       =     3.38 Bohr mag/cell
     absolute magnetization    =     3.39 Bohr mag/cell

     iteration # 15     ecut=    30.00 Ry     beta= 0.70
     Davidson diagonalization with overlap

---- Real-time Memory Report at c_bands before calling an iterative solver
            64 MiB given to the printing process from OS
             0 MiB allocation reported by mallinfo(arena+hblkhd)
           895 MiB available memory on the node where the printing process lives
------------------
     ethr =  1.69E-13,  avg # of iterations =  3.9

     total cpu time spent up to now is       15.6 secs

     total energy              =    -352.83213019 Ry
     estimated scf accuracy    <          1.9E-12 Ry

     total magnetization       =     3.38 Bohr mag/cell
     absolute magnetization    =     3.39 Bohr mag/cell

     iteration # 16     ecut=    30.00 Ry     beta= 0.70
     Davidson diagonalization with overlap

---- Real-time Memory Report at c_bands before calling an iterative solver
            64 MiB given to the printing process from OS
             0 MiB allocation reported by mallinfo(arena+hblkhd)
           881 MiB available memory on the node where the printing process lives
------------------
     ethr =  1.00E-13,  avg # of iterations =  1.0

     Magnetic moment per site  (integrated on atomic sphere of radius R)
     atom   1 (R=0.237)  charge= 12.7738  magn=  2.9349
     atom   2 (R=0.237)  charge=  3.7799  magn=  0.0096

     total cpu time spent up to now is       15.8 secs

     End of self-consistent calculation

 ------ SPIN UP ------------


          k = 0.0000 0.0000 0.0000 (   821 PWs)   bands (ev):

   -70.8149 -39.5770 -39.5770 -39.5770  -4.7467   5.0810   5.0810   5.0810
     7.6980   7.6980  12.1341  12.1341  12.1341  12.8711  17.0119

     occupation numbers 
     1.0000   1.0000   1.0000   1.0000   1.0000   1.0000   1.0000   1.0000
     1.0000   1.0000   0.0000   0.0000   0.0000   0.0000   0.0000

          k = 0.1519 0.1519-0.1519 (   800 PWs)   bands (ev):

   -70.8145 -39.5812 -39.5773 -39.5773  -4.4172   4.5739   5.1958   5.1958
     7.6861   7.6861  10.3787  11.6492  11.6492  14.2021  17.0937

     occupation numbers 
     1.0000   1.0000   1.0000   1.0000   1.0000   1.0000   1.0000   1.0000
     1.0000   1.0000   0.2736   0.0000   0.0000   0.0000   0.0000

          k = 0.3039 0.3039-0.3039 (   796 PWs)   bands (ev):

   -70.8140 -39.5878 -39.5786 -39.5786  -3.8032   3.8183   5.3269   5.3269
     7.8516   7.8516   8.5978  10.8092  10.8092  14.6314  17.6596

     occupation numbers 
     1.0000   1.0000   1.0000   1.0000   1.0000   1.0000   1.0000   1.0000
     1.0000   1.0000   1.0000   0.0000   0.0000   0.0000   0.0000

          k = 0.3039 0.0000 0.0000 (   801 PWs)   bands (ev):

   -70.8144 -39.5810 -39.5784 -39.5784  -4.3078   4.4457   5.2641   5.2641
     7.4533   7.8439  10.8993  10.8993  10.9432  14.4740  16.2333

     occupation numbers 
     1.0000   1.0000   1.0000   1.0000   1.0000   1.0000   1.0000   1.0000
     1.0000   1.0000   0.0000   0.0000   0.0000   0.0000   0.0000

          k = 0.4558 0.1519-0.1519 (   797 PWs)   bands (ev):

   -70.8140 -39.5860 -39.5802 -39.5796  -3.7794   4.0032   5.2676   5.4451
     7.5191   7.9739   8.9195  10.1194  10.3559  15.1952  16.8813

     occupation numbers 
     1.0000   1.0000   1.0000   1.0000   1.0000   1.0000   1.0000   1.0000
     1.0000   1.0000   1.0000   0.9818   0.3577   0.0000   0.0000

          k =-0.1519-0.4558 0.4558 (   785 PWs)   bands (ev):

   -70.8136 -39.5874 -39.5815 -39.5793  -3.5499   4.0487   4.9627   5.4885
     7.7470   7.8212   8.4136   9.6248  10.3476  15.5575  17.0576

     occupation numbers 
     1.0000   1.0000   1.0000   1.0000   1.0000   1.0000   1.0000   1.0000
     1.0000   1.0000   1.0000   1.0000   0.3904   0.0000   0.0000

          k = 0.0000-0.3039 0.3039 (   797 PWs)   bands (ev):

   -70.8141 -39.5844 -39.5802 -39.5781  -3.9837   4.2498   5.0933   5.3532
     7.5717   7.9009   9.4980   9.8892  11.3164  15.8419  16.9730

     occupation numbers 
     1.0000   1.0000   1.0000   1.0000   1.0000   1.0000   1.0000   1.0000
     1.0000   1.0000   1.0000   1.0000   0.0000   0.0000   0.0000

[...]
------------------
     ethr =  2.29E-11,  avg # of iterations =  2.2

     total cpu time spent up to now is       89.6 secs

     total energy              =    -352.73022100 Ry
     estimated scf accuracy    <          1.8E-09 Ry

     total magnetization       =    -0.00 Bohr mag/cell
     absolute magnetization    =     0.00 Bohr mag/cell

     iteration # 11     ecut=    30.00 Ry     beta= 0.70
     Davidson diagonalization with overlap

---- Real-time Memory Report at c_bands before calling an iterative solver
            64 MiB given to the printing process from OS
             0 MiB allocation reported by mallinfo(arena+hblkhd)
           903 MiB available memory on the node where the printing process lives
------------------
     ethr =  8.77E-12,  avg # of iterations =  1.4

     total cpu time spent up to now is       89.9 secs

     total energy              =    -352.73022100 Ry
     estimated scf accuracy    <          6.3E-10 Ry

     total magnetization       =    -0.00 Bohr mag/cell
     absolute magnetization    =     0.00 Bohr mag/cell

     iteration # 12     ecut=    30.00 Ry     beta= 0.70
     Davidson diagonalization with overlap

---- Real-time Memory Report at c_bands before calling an iterative solver
            64 MiB given to the printing process from OS
             0 MiB allocation reported by mallinfo(arena+hblkhd)
           892 MiB available memory on the node where the printing process lives
------------------
     ethr =  3.01E-12,  avg # of iterations =  2.1

     total cpu time spent up to now is       90.2 secs

     total energy              =    -352.73022100 Ry
     estimated scf accuracy    <          2.2E-10 Ry

     total magnetization       =    -0.00 Bohr mag/cell
     absolute magnetization    =     0.00 Bohr mag/cell

     iteration # 13     ecut=    30.00 Ry     beta= 0.70
     Davidson diagonalization with overlap

---- Real-time Memory Report at c_bands before calling an iterative solver
            64 MiB given to the printing process from OS
             0 MiB allocation reported by mallinfo(arena+hblkhd)
           902 MiB available memory on the node where the printing process lives
------------------
     ethr =  1.05E-12,  avg # of iterations =  2.0

     total cpu time spent up to now is       90.5 secs

     total energy              =    -352.73022100 Ry
     estimated scf accuracy    <          1.0E-10 Ry

     total magnetization       =    -0.00 Bohr mag/cell
     absolute magnetization    =     0.00 Bohr mag/cell

     iteration # 14     ecut=    30.00 Ry     beta= 0.70
     Davidson diagonalization with overlap

---- Real-time Memory Report at c_bands before calling an iterative solver
            64 MiB given to the printing process from OS
             0 MiB allocation reported by mallinfo(arena+hblkhd)
           884 MiB available memory on the node where the printing process lives
------------------
     ethr =  4.80E-13,  avg # of iterations =  1.4

     Magnetic moment per site  (integrated on atomic sphere of radius R)
     atom   1 (R=0.225)  charge= 12.6269  magn= -0.0000
     atom   2 (R=0.225)  charge=  3.4295  magn=  0.0000

     total cpu time spent up to now is       90.8 secs

     End of self-consistent calculation

 ------ SPIN UP ------------


          k = 0.0000 0.0000 0.0000 (   537 PWs)   bands (ev):

   -67.4765 -36.2534 -36.2534 -36.2534  -3.4970   7.0953   7.0953   7.0953
    11.1430  11.1430  15.7079  15.7079  15.7079  15.7628  19.6939

     occupation numbers 
     1.0000   1.0000   1.0000   1.0000   1.0000   1.0000   1.0000   1.0000
     1.0000   1.0000   0.0000   0.0000   0.0000   0.0000   0.0000

          k = 0.1587 0.1587-0.1587 (   564 PWs)   bands (ev):

   -67.4763 -36.2631 -36.2552 -36.2552  -3.1114   6.3805   7.1973   7.1973
    10.9806  10.9806  13.7504  15.1039  15.1039  17.1538  19.7883

     occupation numbers 
     1.0000   1.0000   1.0000   1.0000   1.0000   1.0000   1.0000   1.0000
     1.0000   1.0000   0.0000   0.0000   0.0000   0.0000   0.0000

          k = 0.3174 0.3174-0.3174 (   559 PWs)   bands (ev):

   -67.4753 -36.2779 -36.2576 -36.2576  -2.3648   5.3528   7.3508   7.3508
    11.2360  11.2360  11.8866  14.0592  14.0592  17.5206  20.5005

     occupation numbers 
     1.0000   1.0000   1.0000   1.0000   1.0000   1.0000   1.0000   1.0000
     1.0000   1.0000   0.6219   0.0000   0.0000   0.0000   0.0000

          k = 0.3174-0.0000-0.0000 (   568 PWs)   bands (ev):

   -67.4762 -36.2633 -36.2573 -36.2573  -2.9810   6.2615   7.2342   7.2342
    10.5165  11.3338  14.1800  14.1800  14.6161  17.1099  19.1907

     occupation numbers 
     1.0000   1.0000   1.0000   1.0000   1.0000   1.0000   1.0000   1.0000
     1.0000   1.0000   0.0000   0.0000   0.0000   0.0000   0.0000

          k = 0.4762 0.1587-0.1587 (   556 PWs)   bands (ev):

   -67.4751 -36.2739 -36.2606 -36.2598  -2.3380   5.6468   7.2021   7.4332
    10.5652  11.5039  12.1158  13.3411  13.9418  18.0454  19.8150

     occupation numbers 
     1.0000   1.0000   1.0000   1.0000   1.0000   1.0000   1.0000   1.0000
     1.0000   1.0000   0.0192   0.0000   0.0000   0.0000   0.0000

          k =-0.1587-0.4762 0.4762 (   562 PWs)   bands (ev):

   -67.4749 -36.2774 -36.2642 -36.2594  -2.0565   5.5886   6.8201   7.5079
    10.8302  11.1192  11.6829  13.0545  13.6802  18.2684  20.1860

     occupation numbers 
     1.0000   1.0000   1.0000   1.0000   1.0000   1.0000   1.0000   1.0000
     1.0000   1.0000   0.9924   0.0000   0.0000   0.0000   0.0000

          k = 0.0000-0.3174 0.3174 (   562 PWs)   bands (ev):

   -67.4756 -36.2706 -36.2611 -36.2564  -2.5867   5.9381   6.9899   7.3998
    10.7416  11.3125  12.5606  13.3510  14.8627  18.9144  19.5750

     occupation numbers 
     1.0000   1.0000   1.0000   1.0000   1.0000   1.0000   1.0000   1.0000
     1.0000   1.0000   0.0000   0.0000   0.0000   0.0000   0.0000

          k = 0.6349-0.0000-0.0000 (   560 PWs)   bands (ev):

   -67.4748 -36.2776 -36.2629 -36.2629  -1.9881   5.2508   7.6580   7.6580
    10.0629  11.6812  12.3421  12.4523  12.4523  17.3045  18.9717

     occupation numbers 
     1.0000   1.0000   1.0000   1.0000   1.0000   1.0000   1.0000   1.0000
     1.0000   0.9928   0.0000   0.0000   0.0000   0.0000   0.0000

          k = 0.0000-0.6349 0.6349 (   552 PWs)   bands (ev):

   -67.4744 -36.2774 -36.2672 -36.2625  -1.8077   5.4631   7.1197   7.6990
    10.0884  11.4318  11.5098  12.7234  12.7451  17.8850  19.8726

     occupation numbers 
     1.0000   1.0000   1.0000   1.0000   1.0000   1.0000   1.0000   1.0000
     1.0000   1.0000   1.0000   0.0000   0.0000   0.0000   0.0000

          k =-0.1587-0.4762 0.7936 (   565 PWs)   bands (ev):

   -67.4748 -36.2755 -36.2676 -36.2621  -1.9112   5.7706   6.7332   7.5969
    10.3271  10.9399  11.7999  12.4952  13.4083  18.8725  20.1527

     occupation numbers 
     1.0000   1.0000   1.0000   1.0000   1.0000   1.0000   1.0000   1.0000
     1.0000   1.0000   0.8871   0.0000   0.0000   0.0000   0.0000

 ------ SPIN DOWN ----------


          k = 0.0000 0.0000 0.0000 (   537 PWs)   bands (ev):

   -67.4765 -36.2534 -36.2534 -36.2534  -3.4970   7.0953   7.0953   7.0953
    11.1430  11.1430  15.7079  15.7079  15.7079  15.7628  19.6939

     occupation numbers 
     1.0000   1.0000   1.0000   1.0000   1.0000   1.0000   1.0000   1.0000
     1.0000   1.0000   0.0000   0.0000   0.0000   0.0000   0.0000

          k = 0.1587 0.1587-0.1587 (   564 PWs)   bands (ev):

   -67.4763 -36.2631 -36.2552 -36.2552  -3.1114   6.3805   7.1973   7.1973
    10.9806  10.9806  13.7504  15.1039  15.1039  17.1538  19.7882

     occupation numbers 
     1.0000   1.0000   1.0000   1.0000   1.0000   1.0000   1.0000   1.0000
     1.0000   1.0000   0.0000   0.0000   0.0000   0.0000   0.0000

          k = 0.3174 0.3174-0.3174 (   559 PWs)   bands (ev):

   -67.4753 -36.2779 -36.2576 -36.2576  -2.3648   5.3528   7.3508   7.3508
    11.2360  11.2360  11.8866  14.0592  14.0592  17.5206  20.5005

     occupation numbers 
     1.0000   1.0000   1.0000   1.0000   1.0000   1.0000   1.0000   1.0000
     1.0000   1.0000   0.6219   0.0000   0.0000   0.0000   0.0000

          k = 0.3174-0.0000-0.0000 (   568 PWs)   bands (ev):

   -67.4762 -36.2633 -36.2573 -36.2573  -2.9810   6.2615   7.2342   7.2342
    10.5165  11.3338  14.1800  14.1800  14.6161  17.1099  19.1907

     occupation numbers 
     1.0000   1.0000   1.0000   1.0000   1.0000   1.0000   1.0000   1.0000
     1.0000   1.0000   0.0000   0.0000   0.0000   0.0000   0.0000

          k = 0.4762 0.1587-0.1587 (   556 PWs)   bands (ev):

   -67.4751 -36.2739 -36.2606 -36.2598  -2.3380   5.6468   7.2021   7.4332
    10.5652  11.5039  12.1158  13.3411  13.9418  18.0454  19.8150

     occupation numbers 
     1.0000   1.0000   1.0000   1.0000   1.0000   1.0000   1.0000   1.0000
     1.0000   1.0000   0.0192   0.0000   0.0000   0.0000   0.0000

          k =-0.1587-0.4762 0.4762 (   562 PWs)   bands (ev):

   -67.4749 -36.2775 -36.2642 -36.2594  -2.0565   5.5886   6.8201   7.5079
    10.8302  11.1192  11.6829  13.0545  13.6802  18.2684  20.1860

     occupation numbers 
     1.0000   1.0000   1.0000   1.0000   1.0000   1.0000   1.0000   1.0000
     1.0000   1.0000   0.9924   0.0000   0.0000   0.0000   0.0000

          k = 0.0000-0.3174 0.3174 (   562 PWs)   bands (ev):

   -67.4756 -36.2706 -36.2611 -36.2564  -2.5867   5.9381   6.9899   7.3998
    10.7416  11.3125  12.5606  13.3510  14.8627  18.9144  19.5750

     occupation numbers 
     1.0000   1.0000   1.0000   1.0000   1.0000   1.0000   1.0000   1.0000
     1.0000   1.0000   0.0000   0.0000   0.0000   0.0000   0.0000

          k = 0.6349-0.0000-0.0000 (   560 PWs)   bands (ev):

   -67.4748 -36.2776 -36.2629 -36.2629  -1.9881   5.2508   7.6580   7.6580
    10.0629  11.6812  12.3421  12.4523  12.4523  17.3045  18.9717

     occupation numbers 
     1.0000   1.0000   1.0000   1.0000   1.0000   1.0000   1.0000   1.0000
     1.0000   0.9928   0.0000   0.0000   0.0000   0.0000   0.0000

          k = 0.0000-0.6349 0.6349 (   552 PWs)   bands (ev):

   -67.4744 -36.2774 -36.2672 -36.2625  -1.8077   5.4631   7.1197   7.6990
    10.0884  11.4318  11.5098  12.7234  12.7451  17.8850  19.8726

     occupation numbers 
     1.0000   1.0000   1.0000   1.0000   1.0000   1.0000   1.0000   1.0000
     1.0000   1.0000   1.0000   0.0000   0.0000   0.0000   0.0000

          k =-0.1587-0.4762 0.7936 (   565 PWs)   bands (ev):

   -67.4748 -36.2755 -36.2676 -36.2621  -1.9112   5.7706   6.7332   7.5969
    10.3271  10.9399  11.7999  12.4952  13.4083  18.8725  20.1527

     occupation numbers 
     1.0000   1.0000   1.0000   1.0000   1.0000   1.0000   1.0000   1.0000
     1.0000   1.0000   0.8871   0.0000   0.0000   0.0000   0.0000

     the Fermi energy is    11.9165 ev

!    total energy              =    -352.73022100 Ry
     total all-electron energy =     -3115.588625 Ry
     estimated scf accuracy    <          5.8E-13 Ry
     smearing contrib. (-TS)   =      -0.00106159 Ry
     internal energy E=F+TS    =    -352.72915941 Ry

     The total energy is F=E-TS. E is the sum of the following terms:
     one-electron contribution =    -127.56069353 Ry
     hartree contribution      =      75.55306716 Ry
     xc contribution           =     -33.05593558 Ry
     ewald contribution        =    -143.94526138 Ry
     one-center paw contrib.   =    -123.72033608 Ry
      -> PAW hartree energy AE =     184.51944007 Ry
      -> PAW hartree energy PS =    -185.43010451 Ry
      -> PAW xc energy AE      =    -104.70746647 Ry
      -> PAW xc energy PS      =      28.03024836 Ry
      -> total E_H with PAW    =      74.64240271 Ry
      -> total E_XC with PAW   =    -109.73315369 Ry

     total magnetization       =    -0.00 Bohr mag/cell
     absolute magnetization    =     0.00 Bohr mag/cell

     convergence has been achieved in  14 iterations

     Forces acting on atoms (cartesian axes, Ry/au):

     atom    1 type  1   force =     0.00000000    0.00000000    0.00000000
     atom    2 type  2   force =     0.00000000   -0.00000000    0.00000000
     The non-local contrib.  to forces
     atom    1 type  1   force =    -0.00000000   -0.00000000    0.00000000
     atom    2 type  2   force =     0.00000000    0.00000000   -0.00000000
     The ionic contribution  to forces
     atom    1 type  1   force =    -0.00000000   -0.00000000   -0.00000000
     atom    2 type  2   force =     0.00000000   -0.00000000    0.00000000
     The local contribution  to forces
     atom    1 type  1   force =     0.00000000    0.00000000    0.00000000
     atom    2 type  2   force =     0.00000000   -0.00000000    0.00000000
     The core correction contribution to forces
     atom    1 type  1   force =     0.00000000    0.00000000    0.00000000
     atom    2 type  2   force =    -0.00000000    0.00000000    0.00000000
     The Hubbard contrib.    to forces
     atom    1 type  1   force =     0.00000000    0.00000000    0.00000000
     atom    2 type  2   force =     0.00000000    0.00000000    0.00000000
     The SCF correction term to forces
     atom    1 type  1   force =     0.00000000    0.00000000   -0.00000000
     atom    2 type  2   force =    -0.00000000   -0.00000000    0.00000000

     Total force =     0.000000     Total SCF correction =     0.000000


     Computing stress (Cartesian axis) and pressure

          total   stress  (Ry/bohr**3)                   (kbar)     P=     -499.84
  -0.00339783   0.00000000   0.00000000         -499.84        0.00        0.00
   0.00000000  -0.00339783   0.00000000            0.00     -499.84        0.00
   0.00000000   0.00000000  -0.00339783            0.00        0.00     -499.84

     kinetic stress (kbar)  22417.59     -0.00     -0.00
                               -0.00  22417.59     -0.00
                               -0.00     -0.00  22417.59

     local   stress (kbar)   2394.57      0.00      0.00
                                0.00   2394.57      0.00
                                0.00      0.00   2394.57

     nonloc. stress (kbar)  -1545.77      0.00      0.00
                                0.00  -1545.77      0.00
                                0.00      0.00  -1545.77

     hartree stress (kbar)  18328.49     -0.00     -0.00
                               -0.00  18328.49     -0.00
                               -0.00     -0.00  18328.49

     exc-cor stress (kbar)  -3349.52      0.00      0.00
                                0.00  -3349.52      0.00
                                0.00      0.00  -3349.52

     corecor stress (kbar)  -3825.38      0.00      0.00
                                0.00  -3825.38      0.00
                                0.00      0.00  -3825.38

     ewald   stress (kbar) -34919.82     -0.00     -0.00
                               -0.00 -34919.82     -0.00
                               -0.00     -0.00 -34919.82

     hubbard stress (kbar)      0.00      0.00      0.00
                                0.00      0.00      0.00
                                0.00      0.00      0.00

     DFT-D   stress (kbar)      0.00      0.00      0.00
                                0.00      0.00      0.00
                                0.00      0.00      0.00

     XDM     stress (kbar)      0.00      0.00      0.00
                                0.00      0.00      0.00
                                0.00      0.00      0.00

     dft-nl  stress (kbar)      0.00      0.00      0.00
                                0.00      0.00      0.00
                                0.00      0.00      0.00

     TS-vdW  stress (kbar)      0.00      0.00      0.00
                                0.00      0.00      0.00
                                0.00      0.00      0.00

     MDB     stress (kbar)      0.00      0.00      0.00
                                0.00      0.00      0.00
                                0.00      0.00      0.00

     3D-RISM stress (kbar)      0.00      0.00      0.00
                                0.00      0.00      0.00
                                0.00      0.00      0.00


     Writing all to output data dir ./temp/mns.save/ :
     XML data file, charge density, pseudopotentials, collected wavefunctions

     init_run     :      1.01s CPU      1.08s WALL (       2 calls)
     electrons    :     77.73s CPU     84.78s WALL (      10 calls)
     update_pot   :      1.05s CPU      1.23s WALL (       7 calls)
     forces       :      0.50s CPU      0.51s WALL (      10 calls)
     stress       :      1.45s CPU      1.47s WALL (      10 calls)

     Called by init_run:
     wfcinit      :      0.08s CPU      0.09s WALL (       2 calls)
     wfcinit:atom :      0.00s CPU      0.00s WALL (      40 calls)
     wfcinit:wfcr :      0.08s CPU      0.08s WALL (      40 calls)
     potinit      :      0.69s CPU      0.77s WALL (       3 calls)
     hinit0       :      0.35s CPU      0.36s WALL (       2 calls)

     Called by electrons:
     c_bands      :     29.43s CPU     30.46s WALL (     232 calls)
     sum_band     :     10.65s CPU     10.84s WALL (     232 calls)
     v_of_rho     :      1.01s CPU      1.05s WALL (     240 calls)
     v_h          :      0.02s CPU      0.02s WALL (     240 calls)
     v_xc         :      1.08s CPU      1.12s WALL (     260 calls)
     newd         :      3.82s CPU      3.87s WALL (     240 calls)
     PAW_pot      :     34.91s CPU     41.07s WALL (     247 calls)
     mix_rho      :      0.26s CPU      0.27s WALL (     232 calls)

     Called by c_bands:
     init_us_2    :      0.52s CPU      0.54s WALL (    9860 calls)
     cegterg      :     28.32s CPU     29.31s WALL (    4640 calls)

     Called by sum_band:
     sum_band:wei :      0.03s CPU      0.03s WALL (     232 calls)
     sum_band:loo :      2.90s CPU      3.05s WALL (     232 calls)
     sum_band:buf :      0.05s CPU      0.06s WALL (    4640 calls)
     sum_band:ini :      0.21s CPU      0.23s WALL (    4640 calls)
     sum_band:cal :      0.75s CPU      0.79s WALL (    4780 calls)
     sum_band:bec :      0.07s CPU      0.08s WALL (    4780 calls)
     addusdens    :      7.44s CPU      7.47s WALL (     232 calls)
                                        0.00s GPU  (     232 calls)
     addusd:skk   :      0.01s CPU      0.01s WALL (     464 calls)
                                        0.00s GPU  (     464 calls)

     Called by *egterg:
     cdiaghg      :      4.51s CPU      4.63s WALL (   19673 calls)
     cegterg:over :      2.37s CPU      2.46s WALL (   15233 calls)
     cegterg:upda :      1.05s CPU      1.07s WALL (   15233 calls)
     cegterg:last :      2.46s CPU      2.50s WALL (   10712 calls)
     h_psi        :     14.70s CPU     15.31s WALL (   19913 calls)
     s_psi        :      1.98s CPU      2.07s WALL (   19913 calls)
     g_psi        :      0.07s CPU      0.07s WALL (   15233 calls)

     Called by h_psi:
     h_psi:calbec :      2.14s CPU      2.26s WALL (   19913 calls)
     vloc_psi     :     10.47s CPU     10.86s WALL (   19913 calls)
     add_vuspsi   :      1.98s CPU      2.08s WALL (   19913 calls)

     General routines
     calbec       :      3.02s CPU      3.19s WALL (   25693 calls)
     fft          :      0.54s CPU      0.56s WALL (    6389 calls)
     ffts         :      0.21s CPU      0.21s WALL (     944 calls)
     fftw         :     10.59s CPU     11.00s WALL (  466566 calls)
     interpolate  :      0.25s CPU      0.25s WALL (     480 calls)

     Parallel routines

     PAW routines
     PAW_pot      :     34.91s CPU     41.07s WALL (     247 calls)
     PAW_symme    :      0.13s CPU      0.14s WALL (     479 calls)

     PWSCF        :   1m23.42s CPU   1m30.98s WALL


   This run was terminated on:  12:49:42  12Jan2025            

=------------------------------------------------------------------------------=
   JOB DONE.
=------------------------------------------------------------------------------=
