
     Program PWSCF v.7.3.1 starts on 21Dec2024 at 20:24: 1 

     This program is part of the open-source Quantum ESPRESSO suite
     for quantum simulation of materials; please cite
         "P. Giannozzi et al., J. Phys.:Condens. Matter 21 395502 (2009);
         "P. Giannozzi et al., J. Phys.:Condens. Matter 29 465901 (2017);
         "P. Giannozzi et al., J. Chem. Phys. 152 154105 (2020);
          URL http://www.quantum-espresso.org", 
     in publications or presentations arising from this work. More details at
     http://www.quantum-espresso.org/quote

     Parallel version (MPI), running on     8 processors

     MPI processes distributed on     1 nodes
     11177 MiB available memory on the printing compute node when the environment starts

     Reading input from nscf.in

     Current dimensions of program PWSCF are:
     Max number of different atomic species (ntypx) = 10
     Max number of k-points (npk) =  40000
     Max angular momentum in pseudopotentials (lmaxx) =  4
     file Si.pbesol-n-kjpaw_psl.1.0.0.UPF: wavefunction(s)  3S 3P renormalized

     Atomic positions and unit cell read from directory:
     ./temp/silicon.save/


     R & G space division:  proc/nbgrp/npool/nimage =       8
     Subspace diagonalization in iterative solution of the eigenvalue problem:
     a serial algorithm will be used


     Parallelization info
     --------------------
     sticks:   dense  smooth     PW     G-vecs:    dense   smooth      PW
     Min          91      91     27                 1617     1617     278
     Max          92      92     28                 1618     1618     280
     Sum         733     733    223                12939    12939    2229

     Using Slab Decomposition



     bravais-lattice index     =           -5
     lattice parameter (alat)  =       7.2607  a.u.
     unit-cell volume          =     270.6605 (a.u.)^3
     number of atoms/cell      =            2
     number of atomic types    =            1
     number of electrons       =         8.00
     number of Kohn-Sham states=            8
     kinetic-energy cutoff     =      50.0000  Ry
     charge density cutoff     =     200.0000  Ry
     Exchange-correlation= SLA  PW   PSX  PSC
                           (   1   4  10   8   0   0   0)

     celldm(1)=   7.260725  celldm(2)=   0.000000  celldm(3)=   0.000000
     celldm(4)=   0.500000  celldm(5)=   0.000000  celldm(6)=   0.000000

     crystal axes: (cart. coord. in units of alat)
               a(1) = (   0.000000   0.707107   0.707107 )  
               a(2) = (   0.707107   0.000000   0.707107 )  
               a(3) = (   0.707107   0.707107   0.000000 )  

     reciprocal axes: (cart. coord. in units 2 pi/alat)
               b(1) = ( -0.707107  0.707107  0.707107 )  
               b(2) = (  0.707107 -0.707107  0.707107 )  
               b(3) = (  0.707107  0.707107 -0.707107 )  


     PseudoPot. # 1 for Si read from file:
     ./../../pseudos/Si.pbesol-n-kjpaw_psl.1.0.0.UPF
     MD5 check sum: 9fbd692c527d147d9ad0870b71777ff4
     Pseudo is Projector augmented-wave + core cor, Zval =  4.0
     Generated using &quot;atomic&quot; code by A. Dal Corso  v.6.3
     Shape of augmentation charge: PSQ
     Using radial grid of 1141 points,  6 beta functions with: 
                l(1) =   0
                l(2) =   0
                l(3) =   1
                l(4) =   1
                l(5) =   2
                l(6) =   2
     Q(r) pseudized with 0 coefficients 


     atomic species   valence    mass     pseudopotential
     Si                4.00    28.08550     Si( 1.00)

     48 Sym. Ops., with inversion, found (24 have fractional translation)


                                    s                        frac. trans.

      isym =  1     identity                                     

 cryst.   s( 1) = (     1          0          0      )
                  (     0          1          0      )
                  (     0          0          1      )

 cart.    s( 1) = (  1.0000000  0.0000000  0.0000000 )
                  (  0.0000000  1.0000000  0.0000000 )
                  (  0.0000000  0.0000000  1.0000000 )


      isym =  2     180 deg rotation - cart. axis [0,0,1]        

 cryst.   s( 2) = (     0          1         -1      )
                  (     1          0         -1      )
                  (     0          0         -1      )

 cart.    s( 2) = ( -1.0000000  0.0000000  0.0000000 )
                  (  0.0000000 -1.0000000  0.0000000 )
                  (  0.0000000  0.0000000  1.0000000 )


      isym =  3     180 deg rotation - cart. axis [0,1,0]        

 cryst.   s( 3) = (     0         -1          1      )
                  (     0         -1          0      )
                  (     1         -1          0      )

 cart.    s( 3) = ( -1.0000000  0.0000000  0.0000000 )
                  (  0.0000000  1.0000000  0.0000000 )
                  (  0.0000000  0.0000000 -1.0000000 )


      isym =  4     180 deg rotation - cart. axis [1,0,0]        

 cryst.   s( 4) = (    -1          0          0      )
                  (    -1          0          1      )
                  (    -1          1          0      )

 cart.    s( 4) = (  1.0000000  0.0000000  0.0000000 )
                  (  0.0000000 -1.0000000  0.0000000 )
                  (  0.0000000  0.0000000 -1.0000000 )


      isym =  5     180 deg rotation - cart. axis [1,1,0]        

 cryst.   s( 5) = (    -1          0          1      )    f =( -0.2499998 )
                  (     0         -1          1      )       ( -0.2499998 )
                  (     0          0          1      )       ( -0.2500001 )

 cart.    s( 5) = (  0.0000000  1.0000000  0.0000000 )    f =( -0.3535533 )
                  (  1.0000000  0.0000000  0.0000000 )       ( -0.3535533 )
                  (  0.0000000  0.0000000 -1.0000000 )       ( -0.3535531 )


      isym =  6     180 deg rotation - cart. axis [1,-1,0]       

 cryst.   s( 6) = (     0         -1          0      )    f =( -0.2499998 )
                  (    -1          0          0      )       ( -0.2499998 )
                  (     0          0         -1      )       ( -0.2499998 )

 cart.    s( 6) = (  0.0000000 -1.0000000  0.0000000 )    f =( -0.3535531 )
                  ( -1.0000000  0.0000000  0.0000000 )       ( -0.3535531 )
                  (  0.0000000  0.0000000 -1.0000000 )       ( -0.3535531 )


      isym =  7      90 deg rotation - cart. axis [0,0,-1]       

 cryst.   s( 7) = (     0          1          0      )    f =( -0.2499998 )
                  (     0          1         -1      )       ( -0.2500001 )
                  (    -1          1          0      )       ( -0.2499998 )

 cart.    s( 7) = (  0.0000000  1.0000000  0.0000000 )    f =( -0.3535533 )
                  ( -1.0000000  0.0000000  0.0000000 )       ( -0.3535531 )
                  (  0.0000000  0.0000000  1.0000000 )       ( -0.3535533 )


      isym =  8      90 deg rotation - cart. axis [0,0,1]        

 cryst.   s( 8) = (     1          0         -1      )    f =( -0.2500001 )
                  (     1          0          0      )       ( -0.2499998 )
                  (     1         -1          0      )       ( -0.2499998 )

 cart.    s( 8) = (  0.0000000 -1.0000000  0.0000000 )    f =( -0.3535531 )
                  (  1.0000000  0.0000000  0.0000000 )       ( -0.3535533 )
                  (  0.0000000  0.0000000  1.0000000 )       ( -0.3535533 )


      isym =  9     180 deg rotation - cart. axis [1,0,1]        

 cryst.   s( 9) = (    -1          1          0      )    f =( -0.2499998 )
                  (     0          1          0      )       ( -0.2500001 )
                  (     0          1         -1      )       ( -0.2499998 )

 cart.    s( 9) = (  0.0000000  0.0000000  1.0000000 )    f =( -0.3535533 )
                  (  0.0000000 -1.0000000  0.0000000 )       ( -0.3535531 )
                  (  1.0000000  0.0000000  0.0000000 )       ( -0.3535533 )


      isym = 10     180 deg rotation - cart. axis [-1,0,1]       

 cryst.   s(10) = (     0          0         -1      )    f =( -0.2499998 )
                  (     0         -1          0      )       ( -0.2499998 )
                  (    -1          0          0      )       ( -0.2499998 )

 cart.    s(10) = (  0.0000000  0.0000000 -1.0000000 )    f =( -0.3535531 )
                  (  0.0000000 -1.0000000  0.0000000 )       ( -0.3535531 )
                  ( -1.0000000  0.0000000  0.0000000 )       ( -0.3535531 )


      isym = 11      90 deg rotation - cart. axis [0,1,0]        

 cryst.   s(11) = (     0          0          1      )    f =( -0.2499998 )
                  (    -1          0          1      )       ( -0.2499998 )
                  (     0         -1          1      )       ( -0.2500001 )

 cart.    s(11) = (  0.0000000  0.0000000  1.0000000 )    f =( -0.3535533 )
                  (  0.0000000  1.0000000  0.0000000 )       ( -0.3535533 )
                  ( -1.0000000  0.0000000  0.0000000 )       ( -0.3535531 )


      isym = 12      90 deg rotation - cart. axis [0,-1,0]       

 cryst.   s(12) = (     1         -1          0      )    f =( -0.2500001 )
                  (     1          0         -1      )       ( -0.2499998 )
                  (     1          0          0      )       ( -0.2499998 )

 cart.    s(12) = (  0.0000000  0.0000000 -1.0000000 )    f =( -0.3535531 )
                  (  0.0000000  1.0000000  0.0000000 )       ( -0.3535533 )
                  (  1.0000000  0.0000000  0.0000000 )       ( -0.3535533 )


      isym = 13     180 deg rotation - cart. axis [0,1,1]        

 cryst.   s(13) = (     1          0          0      )    f =( -0.2500001 )
                  (     1         -1          0      )       ( -0.2499998 )
                  (     1          0         -1      )       ( -0.2499998 )

 cart.    s(13) = ( -1.0000000  0.0000000  0.0000000 )    f =( -0.3535531 )
                  (  0.0000000  0.0000000  1.0000000 )       ( -0.3535533 )
                  (  0.0000000  1.0000000  0.0000000 )       ( -0.3535533 )


      isym = 14     180 deg rotation - cart. axis [0,1,-1]       

 cryst.   s(14) = (    -1          0          0      )    f =( -0.2499998 )
                  (     0          0         -1      )       ( -0.2499998 )
                  (     0         -1          0      )       ( -0.2499998 )

 cart.    s(14) = ( -1.0000000  0.0000000  0.0000000 )    f =( -0.3535531 )
                  (  0.0000000  0.0000000 -1.0000000 )       ( -0.3535531 )
                  (  0.0000000 -1.0000000  0.0000000 )       ( -0.3535531 )


      isym = 15      90 deg rotation - cart. axis [-1,0,0]       

 cryst.   s(15) = (     0         -1          1      )    f =( -0.2499998 )
                  (     0          0          1      )       ( -0.2499998 )
                  (    -1          0          1      )       ( -0.2500001 )

 cart.    s(15) = (  1.0000000  0.0000000  0.0000000 )    f =( -0.3535533 )
                  (  0.0000000  0.0000000  1.0000000 )       ( -0.3535533 )
                  (  0.0000000 -1.0000000  0.0000000 )       ( -0.3535531 )


      isym = 16      90 deg rotation - cart. axis [1,0,0]        

 cryst.   s(16) = (     0          1         -1      )    f =( -0.2499998 )
                  (    -1          1          0      )       ( -0.2500001 )
                  (     0          1          0      )       ( -0.2499998 )

 cart.    s(16) = (  1.0000000  0.0000000  0.0000000 )    f =( -0.3535533 )
                  (  0.0000000  0.0000000 -1.0000000 )       ( -0.3535531 )
                  (  0.0000000  1.0000000  0.0000000 )       ( -0.3535533 )


      isym = 17     120 deg rotation - cart. axis [-1,-1,-1]     

 cryst.   s(17) = (     0          0          1      )
                  (     1          0          0      )
                  (     0          1          0      )

 cart.    s(17) = (  0.0000000  1.0000000  0.0000000 )
                  (  0.0000000  0.0000000  1.0000000 )
                  (  1.0000000  0.0000000  0.0000000 )


      isym = 18     120 deg rotation - cart. axis [-1,1,1]       

 cryst.   s(18) = (     1         -1          0      )
                  (     0         -1          1      )
                  (     0         -1          0      )

 cart.    s(18) = (  0.0000000 -1.0000000  0.0000000 )
                  (  0.0000000  0.0000000  1.0000000 )
                  ( -1.0000000  0.0000000  0.0000000 )


      isym = 19     120 deg rotation - cart. axis [1,1,-1]       

 cryst.   s(19) = (    -1          1          0      )
                  (    -1          0          0      )
                  (    -1          0          1      )

 cart.    s(19) = (  0.0000000  1.0000000  0.0000000 )
                  (  0.0000000  0.0000000 -1.0000000 )
                  ( -1.0000000  0.0000000  0.0000000 )


      isym = 20     120 deg rotation - cart. axis [1,-1,1]       

 cryst.   s(20) = (     0          0         -1      )
                  (     0          1         -1      )
                  (     1          0         -1      )

 cart.    s(20) = (  0.0000000 -1.0000000  0.0000000 )
                  (  0.0000000  0.0000000 -1.0000000 )
                  (  1.0000000  0.0000000  0.0000000 )


      isym = 21     120 deg rotation - cart. axis [1,1,1]        

 cryst.   s(21) = (     0          1          0      )
                  (     0          0          1      )
                  (     1          0          0      )

 cart.    s(21) = (  0.0000000  0.0000000  1.0000000 )
                  (  1.0000000  0.0000000  0.0000000 )
                  (  0.0000000  1.0000000  0.0000000 )


      isym = 22     120 deg rotation - cart. axis [-1,1,-1]      

 cryst.   s(22) = (    -1          0          1      )
                  (    -1          1          0      )
                  (    -1          0          0      )

 cart.    s(22) = (  0.0000000  0.0000000  1.0000000 )
                  ( -1.0000000  0.0000000  0.0000000 )
                  (  0.0000000 -1.0000000  0.0000000 )


      isym = 23     120 deg rotation - cart. axis [1,-1,-1]      

 cryst.   s(23) = (     1          0         -1      )
                  (     0          0         -1      )
                  (     0          1         -1      )

 cart.    s(23) = (  0.0000000  0.0000000 -1.0000000 )
                  ( -1.0000000  0.0000000  0.0000000 )
                  (  0.0000000  1.0000000  0.0000000 )


      isym = 24     120 deg rotation - cart. axis [-1,-1,1]      

 cryst.   s(24) = (     0         -1          0      )
                  (     1         -1          0      )
                  (     0         -1          1      )

 cart.    s(24) = (  0.0000000  0.0000000 -1.0000000 )
                  (  1.0000000  0.0000000  0.0000000 )
                  (  0.0000000 -1.0000000  0.0000000 )


      isym = 25     inversion                                    

 cryst.   s(25) = (    -1          0          0      )    f =( -0.2499998 )
                  (     0         -1          0      )       ( -0.2499998 )
                  (     0          0         -1      )       ( -0.2499998 )

 cart.    s(25) = ( -1.0000000  0.0000000  0.0000000 )    f =( -0.3535531 )
                  (  0.0000000 -1.0000000  0.0000000 )       ( -0.3535531 )
                  (  0.0000000  0.0000000 -1.0000000 )       ( -0.3535531 )


      isym = 26     inv. 180 deg rotation - cart. axis [0,0,1]   

 cryst.   s(26) = (     0         -1          1      )    f =( -0.2499998 )
                  (    -1          0          1      )       ( -0.2499998 )
                  (     0          0          1      )       ( -0.2500001 )

 cart.    s(26) = (  1.0000000  0.0000000  0.0000000 )    f =( -0.3535533 )
                  (  0.0000000  1.0000000  0.0000000 )       ( -0.3535533 )
                  (  0.0000000  0.0000000 -1.0000000 )       ( -0.3535531 )


      isym = 27     inv. 180 deg rotation - cart. axis [0,1,0]   

 cryst.   s(27) = (     0          1         -1      )    f =( -0.2499998 )
                  (     0          1          0      )       ( -0.2500001 )
                  (    -1          1          0      )       ( -0.2499998 )

 cart.    s(27) = (  1.0000000  0.0000000  0.0000000 )    f =( -0.3535533 )
                  (  0.0000000 -1.0000000  0.0000000 )       ( -0.3535531 )
                  (  0.0000000  0.0000000  1.0000000 )       ( -0.3535533 )


      isym = 28     inv. 180 deg rotation - cart. axis [1,0,0]   

 cryst.   s(28) = (     1          0          0      )    f =( -0.2500001 )
                  (     1          0         -1      )       ( -0.2499998 )
                  (     1         -1          0      )       ( -0.2499998 )

 cart.    s(28) = ( -1.0000000  0.0000000  0.0000000 )    f =( -0.3535531 )
                  (  0.0000000  1.0000000  0.0000000 )       ( -0.3535533 )
                  (  0.0000000  0.0000000  1.0000000 )       ( -0.3535533 )


      isym = 29     inv. 180 deg rotation - cart. axis [1,1,0]   

 cryst.   s(29) = (     1          0         -1      )
                  (     0          1         -1      )
                  (     0          0         -1      )

 cart.    s(29) = (  0.0000000 -1.0000000  0.0000000 )
                  ( -1.0000000  0.0000000  0.0000000 )
                  (  0.0000000  0.0000000  1.0000000 )


      isym = 30     inv. 180 deg rotation - cart. axis [1,-1,0]  

 cryst.   s(30) = (     0          1          0      )
                  (     1          0          0      )
                  (     0          0          1      )

 cart.    s(30) = (  0.0000000  1.0000000  0.0000000 )
                  (  1.0000000  0.0000000  0.0000000 )
                  (  0.0000000  0.0000000  1.0000000 )


      isym = 31     inv.  90 deg rotation - cart. axis [0,0,-1]  

 cryst.   s(31) = (     0         -1          0      )
                  (     0         -1          1      )
                  (     1         -1          0      )

 cart.    s(31) = (  0.0000000 -1.0000000  0.0000000 )
                  (  1.0000000  0.0000000  0.0000000 )
                  (  0.0000000  0.0000000 -1.0000000 )


      isym = 32     inv.  90 deg rotation - cart. axis [0,0,1]   

 cryst.   s(32) = (    -1          0          1      )
                  (    -1          0          0      )
                  (    -1          1          0      )

 cart.    s(32) = (  0.0000000  1.0000000  0.0000000 )
                  ( -1.0000000  0.0000000  0.0000000 )
                  (  0.0000000  0.0000000 -1.0000000 )


      isym = 33     inv. 180 deg rotation - cart. axis [1,0,1]   

 cryst.   s(33) = (     1         -1          0      )
                  (     0         -1          0      )
                  (     0         -1          1      )

 cart.    s(33) = (  0.0000000  0.0000000 -1.0000000 )
                  (  0.0000000  1.0000000  0.0000000 )
                  ( -1.0000000  0.0000000  0.0000000 )


      isym = 34     inv. 180 deg rotation - cart. axis [-1,0,1]  

 cryst.   s(34) = (     0          0          1      )
                  (     0          1          0      )
                  (     1          0          0      )

 cart.    s(34) = (  0.0000000  0.0000000  1.0000000 )
                  (  0.0000000  1.0000000  0.0000000 )
                  (  1.0000000  0.0000000  0.0000000 )


      isym = 35     inv.  90 deg rotation - cart. axis [0,1,0]   

 cryst.   s(35) = (     0          0         -1      )
                  (     1          0         -1      )
                  (     0          1         -1      )

 cart.    s(35) = (  0.0000000  0.0000000 -1.0000000 )
                  (  0.0000000 -1.0000000  0.0000000 )
                  (  1.0000000  0.0000000  0.0000000 )


      isym = 36     inv.  90 deg rotation - cart. axis [0,-1,0]  

 cryst.   s(36) = (    -1          1          0      )
                  (    -1          0          1      )
                  (    -1          0          0      )

 cart.    s(36) = (  0.0000000  0.0000000  1.0000000 )
                  (  0.0000000 -1.0000000  0.0000000 )
                  ( -1.0000000  0.0000000  0.0000000 )


      isym = 37     inv. 180 deg rotation - cart. axis [0,1,1]   

 cryst.   s(37) = (    -1          0          0      )
                  (    -1          1          0      )
                  (    -1          0          1      )

 cart.    s(37) = (  1.0000000  0.0000000  0.0000000 )
                  (  0.0000000  0.0000000 -1.0000000 )
                  (  0.0000000 -1.0000000  0.0000000 )


      isym = 38     inv. 180 deg rotation - cart. axis [0,1,-1]  

 cryst.   s(38) = (     1          0          0      )
                  (     0          0          1      )
                  (     0          1          0      )

 cart.    s(38) = (  1.0000000  0.0000000  0.0000000 )
                  (  0.0000000  0.0000000  1.0000000 )
                  (  0.0000000  1.0000000  0.0000000 )


      isym = 39     inv.  90 deg rotation - cart. axis [-1,0,0]  

 cryst.   s(39) = (     0          1         -1      )
                  (     0          0         -1      )
                  (     1          0         -1      )

 cart.    s(39) = ( -1.0000000  0.0000000  0.0000000 )
                  (  0.0000000  0.0000000 -1.0000000 )
                  (  0.0000000  1.0000000  0.0000000 )


      isym = 40     inv.  90 deg rotation - cart. axis [1,0,0]   

 cryst.   s(40) = (     0         -1          1      )
                  (     1         -1          0      )
                  (     0         -1          0      )

 cart.    s(40) = ( -1.0000000  0.0000000  0.0000000 )
                  (  0.0000000  0.0000000  1.0000000 )
                  (  0.0000000 -1.0000000  0.0000000 )


      isym = 41     inv. 120 deg rotation - cart. axis [-1,-1,-1]

 cryst.   s(41) = (     0          0         -1      )    f =( -0.2499998 )
                  (    -1          0          0      )       ( -0.2499998 )
                  (     0         -1          0      )       ( -0.2499998 )

 cart.    s(41) = (  0.0000000 -1.0000000  0.0000000 )    f =( -0.3535531 )
                  (  0.0000000  0.0000000 -1.0000000 )       ( -0.3535531 )
                  ( -1.0000000  0.0000000  0.0000000 )       ( -0.3535531 )


      isym = 42     inv. 120 deg rotation - cart. axis [-1,1,1]  

 cryst.   s(42) = (    -1          1          0      )    f =( -0.2499998 )
                  (     0          1         -1      )       ( -0.2500001 )
                  (     0          1          0      )       ( -0.2499998 )

 cart.    s(42) = (  0.0000000  1.0000000  0.0000000 )    f =( -0.3535533 )
                  (  0.0000000  0.0000000 -1.0000000 )       ( -0.3535531 )
                  (  1.0000000  0.0000000  0.0000000 )       ( -0.3535533 )


      isym = 43     inv. 120 deg rotation - cart. axis [1,1,-1]  

 cryst.   s(43) = (     1         -1          0      )    f =( -0.2500001 )
                  (     1          0          0      )       ( -0.2499998 )
                  (     1          0         -1      )       ( -0.2499998 )

 cart.    s(43) = (  0.0000000 -1.0000000  0.0000000 )    f =( -0.3535531 )
                  (  0.0000000  0.0000000  1.0000000 )       ( -0.3535533 )
                  (  1.0000000  0.0000000  0.0000000 )       ( -0.3535533 )


      isym = 44     inv. 120 deg rotation - cart. axis [1,-1,1]  

 cryst.   s(44) = (     0          0          1      )    f =( -0.2499998 )
                  (     0         -1          1      )       ( -0.2499998 )
                  (    -1          0          1      )       ( -0.2500001 )

 cart.    s(44) = (  0.0000000  1.0000000  0.0000000 )    f =( -0.3535533 )
                  (  0.0000000  0.0000000  1.0000000 )       ( -0.3535533 )
                  ( -1.0000000  0.0000000  0.0000000 )       ( -0.3535531 )


      isym = 45     inv. 120 deg rotation - cart. axis [1,1,1]   

 cryst.   s(45) = (     0         -1          0      )    f =( -0.2499998 )
                  (     0          0         -1      )       ( -0.2499998 )
                  (    -1          0          0      )       ( -0.2499998 )

 cart.    s(45) = (  0.0000000  0.0000000 -1.0000000 )    f =( -0.3535531 )
                  ( -1.0000000  0.0000000  0.0000000 )       ( -0.3535531 )
                  (  0.0000000 -1.0000000  0.0000000 )       ( -0.3535531 )


      isym = 46     inv. 120 deg rotation - cart. axis [-1,1,-1] 

 cryst.   s(46) = (     1          0         -1      )    f =( -0.2500001 )
                  (     1         -1          0      )       ( -0.2499998 )
                  (     1          0          0      )       ( -0.2499998 )

 cart.    s(46) = (  0.0000000  0.0000000 -1.0000000 )    f =( -0.3535531 )
                  (  1.0000000  0.0000000  0.0000000 )       ( -0.3535533 )
                  (  0.0000000  1.0000000  0.0000000 )       ( -0.3535533 )


      isym = 47     inv. 120 deg rotation - cart. axis [1,-1,-1] 

 cryst.   s(47) = (    -1          0          1      )    f =( -0.2499998 )
                  (     0          0          1      )       ( -0.2499998 )
                  (     0         -1          1      )       ( -0.2500001 )

 cart.    s(47) = (  0.0000000  0.0000000  1.0000000 )    f =( -0.3535533 )
                  (  1.0000000  0.0000000  0.0000000 )       ( -0.3535533 )
                  (  0.0000000 -1.0000000  0.0000000 )       ( -0.3535531 )


      isym = 48     inv. 120 deg rotation - cart. axis [-1,-1,1] 

 cryst.   s(48) = (     0          1          0      )    f =( -0.2499998 )
                  (    -1          1          0      )       ( -0.2500001 )
                  (     0          1         -1      )       ( -0.2499998 )

 cart.    s(48) = (  0.0000000  0.0000000  1.0000000 )    f =( -0.3535533 )
                  ( -1.0000000  0.0000000  0.0000000 )       ( -0.3535531 )
                  (  0.0000000  1.0000000  0.0000000 )       ( -0.3535533 )


     point group O_h (m-3m) 
     there are 10 classes
     the character table:

       E     8C3   3C2   6C4   6C2'  i     8S6   3s_h  6S4   6s_d 
A_1g   1.00  1.00  1.00  1.00  1.00  1.00  1.00  1.00  1.00  1.00
A_2g   1.00  1.00  1.00 -1.00 -1.00  1.00  1.00  1.00 -1.00 -1.00
E_g    2.00 -1.00  2.00  0.00  0.00  2.00 -1.00  2.00  0.00  0.00
T_1g   3.00  0.00 -1.00  1.00 -1.00  3.00  0.00 -1.00  1.00 -1.00
T_2g   3.00  0.00 -1.00 -1.00  1.00  3.00  0.00 -1.00 -1.00  1.00
A_1u   1.00  1.00  1.00  1.00  1.00 -1.00 -1.00 -1.00 -1.00 -1.00
A_2u   1.00  1.00  1.00 -1.00 -1.00 -1.00 -1.00 -1.00  1.00  1.00
E_u    2.00 -1.00  2.00  0.00  0.00 -2.00  1.00 -2.00  0.00  0.00
T_1u   3.00  0.00 -1.00  1.00 -1.00 -3.00  0.00  1.00 -1.00  1.00
T_2u   3.00  0.00 -1.00 -1.00  1.00 -3.00  0.00  1.00  1.00 -1.00

     the symmetry operations in each class and the name of the first element:

     E        1
          identity                                               
     8C3     17   19   20   18   24   21   22   23
          120 deg rotation - cart. axis [-1,-1,-1]               
     3C2      2    4    3
          180 deg rotation - cart. axis [0,0,1]                  
     6C4      7    8   15   16   12   11
           90 deg rotation - cart. axis [0,0,-1]                 
     6C2'     5    6   14   13   10    9
          180 deg rotation - cart. axis [1,1,0]                  
     i       25
          inversion                                              
     8S6     41   43   44   42   48   45   46   47
          inv. 120 deg rotation - cart. axis [-1,-1,-1]          
     3s_h    26   28   27
          inv. 180 deg rotation - cart. axis [0,0,1]             
     6S4     31   32   39   40   36   35
          inv.  90 deg rotation - cart. axis [0,0,-1]            
     6s_d    29   30   38   37   34   33
          inv. 180 deg rotation - cart. axis [1,1,0]             

   Cartesian axes

     site n.     atom                  positions (alat units)
         1        Si     tau(   1) = (   1.0606600   1.0606600   1.0606600  )
         2        Si     tau(   2) = (   0.7071067   0.7071067   0.7071067  )

   Crystallographic axes

     site n.     atom                  positions (cryst. coord.)
         1        Si     tau(   1) = (  0.7499999  0.7499999  0.7499999  )
         2        Si     tau(   2) = (  0.4999999  0.4999999  0.4999999  )

     number of k points=    47 (tetrahedron method)
                       cart. coord. in units 2pi/alat
        k(    1) = (   0.0000000   0.0000000   0.0000000), wk =   0.0020000
        k(    2) = (   0.0707107   0.0707107  -0.0707107), wk =   0.0160000
        k(    3) = (   0.1414214   0.1414214  -0.1414214), wk =   0.0160000
        k(    4) = (   0.2121320   0.2121320  -0.2121320), wk =   0.0160000
        k(    5) = (   0.2828427   0.2828427  -0.2828427), wk =   0.0160000
        k(    6) = (  -0.3535534  -0.3535534   0.3535534), wk =   0.0080000
        k(    7) = (   0.1414214   0.0000000   0.0000000), wk =   0.0120000
        k(    8) = (   0.2121320   0.0707107  -0.0707107), wk =   0.0480000
        k(    9) = (   0.2828427   0.1414214  -0.1414214), wk =   0.0480000
        k(   10) = (   0.3535534   0.2121320  -0.2121320), wk =   0.0480000
        k(   11) = (  -0.2828427  -0.4242641   0.4242641), wk =   0.0480000
        k(   12) = (  -0.2121320  -0.3535534   0.3535534), wk =   0.0480000
        k(   13) = (  -0.1414214  -0.2828427   0.2828427), wk =   0.0480000
        k(   14) = (  -0.0707107  -0.2121320   0.2121320), wk =   0.0480000
        k(   15) = (   0.0000000  -0.1414214   0.1414214), wk =   0.0240000
        k(   16) = (   0.2828427   0.0000000   0.0000000), wk =   0.0120000
        k(   17) = (   0.3535534   0.0707107  -0.0707107), wk =   0.0480000
        k(   18) = (   0.4242641   0.1414214  -0.1414214), wk =   0.0480000
        k(   19) = (  -0.2121320  -0.4949747   0.4949747), wk =   0.0480000
        k(   20) = (  -0.1414214  -0.4242641   0.4242641), wk =   0.0480000
        k(   21) = (  -0.0707107  -0.3535534   0.3535534), wk =   0.0480000
        k(   22) = (   0.0000000  -0.2828427   0.2828427), wk =   0.0240000
        k(   23) = (   0.4242641   0.0000000   0.0000000), wk =   0.0120000
        k(   24) = (   0.4949747   0.0707107  -0.0707107), wk =   0.0480000
        k(   25) = (  -0.1414214  -0.5656854   0.5656854), wk =   0.0480000
        k(   26) = (  -0.0707107  -0.4949747   0.4949747), wk =   0.0480000
        k(   27) = (  -0.0000000  -0.4242641   0.4242641), wk =   0.0240000
        k(   28) = (   0.5656854   0.0000000   0.0000000), wk =   0.0120000
        k(   29) = (  -0.0707107  -0.6363961   0.6363961), wk =   0.0480000
        k(   30) = (   0.0000000  -0.5656854   0.5656854), wk =   0.0240000
        k(   31) = (  -0.7071068   0.0000000   0.0000000), wk =   0.0060000
        k(   32) = (   0.2828427   0.1414214  -0.0000000), wk =   0.0480000
        k(   33) = (   0.3535534   0.2121320  -0.0707107), wk =   0.0960000
        k(   34) = (  -0.2828427  -0.4242641   0.5656854), wk =   0.0960000
        k(   35) = (  -0.2121320  -0.3535534   0.4949747), wk =   0.0480000
        k(   36) = (   0.4242641   0.1414214  -0.0000000), wk =   0.0480000
        k(   37) = (  -0.2121320  -0.4949747   0.6363961), wk =   0.0960000
        k(   38) = (  -0.1414214  -0.4242641   0.5656854), wk =   0.0960000
        k(   39) = (  -0.0707107  -0.3535534   0.4949747), wk =   0.0960000
        k(   40) = (   0.0000000  -0.2828427   0.4242641), wk =   0.0480000
        k(   41) = (  -0.1414214  -0.5656854   0.7071068), wk =   0.0480000
        k(   42) = (  -0.0707107  -0.4949747   0.6363961), wk =   0.0960000
        k(   43) = (  -0.0000000  -0.4242641   0.5656854), wk =   0.0480000
        k(   44) = (  -0.7071068   0.1414214   0.0000000), wk =   0.0240000
        k(   45) = (  -0.1414214  -0.4242641   0.7071068), wk =   0.0480000
        k(   46) = (  -0.0707107  -0.3535534   0.6363961), wk =   0.0480000
        k(   47) = (  -0.7071068   0.2828427   0.0000000), wk =   0.0240000

                       cryst. coord.
        k(    1) = (   0.0000000   0.0000000   0.0000000), wk =   0.0020000
        k(    2) = (   0.0000000   0.0000000   0.1000000), wk =   0.0160000
        k(    3) = (   0.0000000   0.0000000   0.2000000), wk =   0.0160000
        k(    4) = (   0.0000000   0.0000000   0.3000000), wk =   0.0160000
        k(    5) = (   0.0000000   0.0000000   0.4000000), wk =   0.0160000
        k(    6) = (   0.0000000   0.0000000  -0.5000000), wk =   0.0080000
        k(    7) = (   0.0000000   0.1000000   0.1000000), wk =   0.0120000
        k(    8) = (   0.0000000   0.1000000   0.2000000), wk =   0.0480000
        k(    9) = (   0.0000000   0.1000000   0.3000000), wk =   0.0480000
        k(   10) = (   0.0000000   0.1000000   0.4000000), wk =   0.0480000
        k(   11) = (   0.0000000   0.1000000  -0.5000000), wk =   0.0480000
        k(   12) = (   0.0000000   0.1000000  -0.4000000), wk =   0.0480000
        k(   13) = (   0.0000000   0.1000000  -0.3000000), wk =   0.0480000
        k(   14) = (   0.0000000   0.1000000  -0.2000000), wk =   0.0480000
        k(   15) = (   0.0000000   0.1000000  -0.1000000), wk =   0.0240000
        k(   16) = (   0.0000000   0.2000000   0.2000000), wk =   0.0120000
        k(   17) = (   0.0000000   0.2000000   0.3000000), wk =   0.0480000
        k(   18) = (   0.0000000   0.2000000   0.4000000), wk =   0.0480000
        k(   19) = (   0.0000000   0.2000000  -0.5000000), wk =   0.0480000
        k(   20) = (   0.0000000   0.2000000  -0.4000000), wk =   0.0480000
        k(   21) = (   0.0000000   0.2000000  -0.3000000), wk =   0.0480000
        k(   22) = (   0.0000000   0.2000000  -0.2000000), wk =   0.0240000
        k(   23) = (   0.0000000   0.3000000   0.3000000), wk =   0.0120000
        k(   24) = (   0.0000000   0.3000000   0.4000000), wk =   0.0480000
        k(   25) = (   0.0000000   0.3000000  -0.5000000), wk =   0.0480000
        k(   26) = (   0.0000000   0.3000000  -0.4000000), wk =   0.0480000
        k(   27) = (   0.0000000   0.3000000  -0.3000000), wk =   0.0240000
        k(   28) = (   0.0000000   0.4000000   0.4000000), wk =   0.0120000
        k(   29) = (   0.0000000   0.4000000  -0.5000000), wk =   0.0480000
        k(   30) = (   0.0000000   0.4000000  -0.4000000), wk =   0.0240000
        k(   31) = (   0.0000000  -0.5000000  -0.5000000), wk =   0.0060000
        k(   32) = (   0.1000000   0.2000000   0.3000000), wk =   0.0480000
        k(   33) = (   0.1000000   0.2000000   0.4000000), wk =   0.0960000
        k(   34) = (   0.1000000   0.2000000  -0.5000000), wk =   0.0960000
        k(   35) = (   0.1000000   0.2000000  -0.4000000), wk =   0.0480000
        k(   36) = (   0.1000000   0.3000000   0.4000000), wk =   0.0480000
        k(   37) = (   0.1000000   0.3000000  -0.5000000), wk =   0.0960000
        k(   38) = (   0.1000000   0.3000000  -0.4000000), wk =   0.0960000
        k(   39) = (   0.1000000   0.3000000  -0.3000000), wk =   0.0960000
        k(   40) = (   0.1000000   0.3000000  -0.2000000), wk =   0.0480000
        k(   41) = (   0.1000000   0.4000000  -0.5000000), wk =   0.0480000
        k(   42) = (   0.1000000   0.4000000  -0.4000000), wk =   0.0960000
        k(   43) = (   0.1000000   0.4000000  -0.3000000), wk =   0.0480000
        k(   44) = (   0.1000000  -0.5000000  -0.4000000), wk =   0.0240000
        k(   45) = (   0.2000000   0.4000000  -0.4000000), wk =   0.0480000
        k(   46) = (   0.2000000   0.4000000  -0.3000000), wk =   0.0480000
        k(   47) = (   0.2000000  -0.5000000  -0.3000000), wk =   0.0240000

     Dense  grid:    12939 G-vectors     FFT dimensions: (  36,  36,  36)

     Dynamical RAM for                 wfc:       0.02 MB

     Dynamical RAM for     wfc (w. buffer):       0.02 MB

     Dynamical RAM for           str. fact:       0.02 MB

     Dynamical RAM for           local pot:       0.00 MB

     Dynamical RAM for          nlocal pot:       0.11 MB

     Dynamical RAM for                qrad:       1.14 MB

     Dynamical RAM for          rho,v,vnew:       0.22 MB

     Dynamical RAM for           G-vectors:       0.10 MB

     Dynamical RAM for          h,s,v(r/c):       0.01 MB

     Dynamical RAM for          <psi|beta>:       0.00 MB

     Dynamical RAM for                 psi:       0.05 MB

     Dynamical RAM for                hpsi:       0.05 MB

     Dynamical RAM for                spsi:       0.05 MB

     Dynamical RAM for      wfcinit/wfcrot:       0.05 MB

     Dynamical RAM for           addusdens:       4.64 MB

     Estimated static dynamical RAM per process >       1.92 MB

     Estimated max dynamical RAM per process >       6.56 MB

     Estimated total dynamical RAM >      52.47 MB

     The potential is recalculated from file :
     ./temp/silicon.save/charge-density

     Starting wfcs are    8 randomized atomic wfcs
     Checking if some PAW data can be deallocated... 

     Band Structure Calculation
     Davidson diagonalization with overlap

     Computing kpt #:     1  of    47
     total cpu time spent up to now is        0.7 secs

     Computing kpt #:     2  of    47
     total cpu time spent up to now is        0.8 secs

     Computing kpt #:     3  of    47
     total cpu time spent up to now is        0.9 secs

     Computing kpt #:     4  of    47
     total cpu time spent up to now is        1.0 secs

     Computing kpt #:     5  of    47
     total cpu time spent up to now is        1.1 secs

     Computing kpt #:     6  of    47
     total cpu time spent up to now is        1.2 secs

     Computing kpt #:     7  of    47
     total cpu time spent up to now is        1.3 secs

     Computing kpt #:     8  of    47
     total cpu time spent up to now is        1.4 secs

     Computing kpt #:     9  of    47
     total cpu time spent up to now is        1.5 secs

     Computing kpt #:    10  of    47
     total cpu time spent up to now is        1.5 secs

     Computing kpt #:    11  of    47
     total cpu time spent up to now is        1.6 secs

     Computing kpt #:    12  of    47
     total cpu time spent up to now is        1.7 secs

     Computing kpt #:    13  of    47
     total cpu time spent up to now is        1.8 secs

     Computing kpt #:    14  of    47
     total cpu time spent up to now is        1.9 secs

     Computing kpt #:    15  of    47
     total cpu time spent up to now is        2.0 secs

     Computing kpt #:    16  of    47
     total cpu time spent up to now is        2.1 secs

     Computing kpt #:    17  of    47
     total cpu time spent up to now is        2.2 secs

     Computing kpt #:    18  of    47
     total cpu time spent up to now is        2.2 secs

     Computing kpt #:    19  of    47
     total cpu time spent up to now is        2.3 secs

     Computing kpt #:    20  of    47
     total cpu time spent up to now is        2.4 secs

     Computing kpt #:    21  of    47
     total cpu time spent up to now is        2.5 secs

     Computing kpt #:    22  of    47
     total cpu time spent up to now is        2.6 secs

     Computing kpt #:    23  of    47
     total cpu time spent up to now is        2.7 secs

     Computing kpt #:    24  of    47
     total cpu time spent up to now is        2.8 secs

     Computing kpt #:    25  of    47
     total cpu time spent up to now is        2.9 secs

     Computing kpt #:    26  of    47
     total cpu time spent up to now is        3.0 secs

     Computing kpt #:    27  of    47
     total cpu time spent up to now is        3.1 secs

     Computing kpt #:    28  of    47
     total cpu time spent up to now is        3.2 secs

     Computing kpt #:    29  of    47
     total cpu time spent up to now is        3.3 secs

     Computing kpt #:    30  of    47
     c_bands:  1 eigenvalues not converged
     total cpu time spent up to now is        3.5 secs

     Computing kpt #:    31  of    47
     total cpu time spent up to now is        3.6 secs

     Computing kpt #:    32  of    47
     total cpu time spent up to now is        3.7 secs

     Computing kpt #:    33  of    47
     total cpu time spent up to now is        3.8 secs

     Computing kpt #:    34  of    47
     total cpu time spent up to now is        3.9 secs

     Computing kpt #:    35  of    47
     total cpu time spent up to now is        4.0 secs

     Computing kpt #:    36  of    47
     total cpu time spent up to now is        4.1 secs

     Computing kpt #:    37  of    47
     total cpu time spent up to now is        4.2 secs

     Computing kpt #:    38  of    47
     total cpu time spent up to now is        4.3 secs

     Computing kpt #:    39  of    47
     total cpu time spent up to now is        4.4 secs

     Computing kpt #:    40  of    47
     total cpu time spent up to now is        4.5 secs

     Computing kpt #:    41  of    47
     total cpu time spent up to now is        4.6 secs

     Computing kpt #:    42  of    47
     total cpu time spent up to now is        4.7 secs

     Computing kpt #:    43  of    47
     total cpu time spent up to now is        4.8 secs

     Computing kpt #:    44  of    47
     total cpu time spent up to now is        4.9 secs

     Computing kpt #:    45  of    47
     total cpu time spent up to now is        5.0 secs

     Computing kpt #:    46  of    47
     total cpu time spent up to now is        5.1 secs

     Computing kpt #:    47  of    47
     total cpu time spent up to now is        5.2 secs

     ethr =  1.25E-11,  avg # of iterations = 40.5

     total cpu time spent up to now is        5.2 secs

     End of band structure calculation

          k = 0.0000 0.0000 0.0000 (  1639 PWs)   bands (ev):

    -5.8348   6.1454   6.1454   6.1454   8.6643   8.6643   8.6643   9.4371

     occupation numbers 
     1.0000   1.0000   1.0000   1.0000   0.0000   0.0000   0.0000   0.0000

          k = 0.0707 0.0707-0.0707 (  1606 PWs)   bands (ev):

    -5.7036   4.9876   5.9445   5.9445   8.6619   8.9589   8.9589  10.3694

     occupation numbers 
     1.0000   1.0000   1.0000   1.0000   0.0000   0.0000   0.0000   0.0000

          k = 0.1414 0.1414-0.1414 (  1606 PWs)   bands (ev):

    -5.3162   3.1157   5.5613   5.5613   8.2942   9.4665   9.4665  12.1206

     occupation numbers 
     1.0000   1.0000   1.0000   1.0000   0.0000   0.0000   0.0000   0.0000

          k = 0.2121 0.2121-0.2121 (  1624 PWs)   bands (ev):

    -4.6988   1.3231   5.2259   5.2259   7.9269   9.6278   9.6278  13.6602

     occupation numbers 
     1.0000   1.0000   1.0000   1.0000   0.0000   0.0000   0.0000   0.0000

          k = 0.2828 0.2828-0.2828 (  1616 PWs)   bands (ev):

    -3.9472  -0.1599   5.0139   5.0139   7.6854   9.5019   9.5019  13.7878

     occupation numbers 
     1.0000   1.0000   1.0000   1.0000   0.0000   0.0000   0.0000   0.0000

          k =-0.3536-0.3536 0.3536 (  1622 PWs)   bands (ev):

    -3.4903  -0.8641   4.9425   4.9425   7.6028   9.4234   9.4234  13.6666

     occupation numbers 
     1.0000   1.0000   1.0000   1.0000   0.0000   0.0000   0.0000   0.0000

          k = 0.1414 0.0000 0.0000 (  1599 PWs)   bands (ev):

    -5.6596   5.2009   5.5606   5.5606   8.2687   9.4623   9.4623  10.2689

     occupation numbers 
     1.0000   1.0000   1.0000   1.0000   0.0000   0.0000   0.0000   0.0000

          k = 0.2121 0.0707-0.0707 (  1609 PWs)   bands (ev):

    -5.3565   3.6792   5.1226   5.2942   8.3237   9.5082  10.1170  11.0560

     occupation numbers 
     1.0000   1.0000   1.0000   1.0000   0.0000   0.0000   0.0000   0.0000

          k = 0.2828 0.1414-0.1414 (  1607 PWs)   bands (ev):

    -4.8113   1.9110   4.8033   4.8563   8.4521   9.4837  10.3905  11.3803

     occupation numbers 
     1.0000   1.0000   1.0000   1.0000   0.0000   0.0000   0.0000   0.0000

          k = 0.3536 0.2121-0.2121 (  1610 PWs)   bands (ev):

    -4.0839   0.3307   4.4421   4.6570   8.3067   9.4282  10.2012  12.4511

     occupation numbers 
     1.0000   1.0000   1.0000   1.0000   0.0000   0.0000   0.0000   0.0000

          k =-0.2828-0.4243 0.4243 (  1613 PWs)   bands (ev):

    -3.4367  -0.7143   4.1497   4.6921   8.2214   9.3886   9.9282  13.8215

     occupation numbers 
     1.0000   1.0000   1.0000   1.0000   0.0000   0.0000   0.0000   0.0000

          k =-0.2121-0.3536 0.3536 (  1616 PWs)   bands (ev):

    -3.6061  -0.4631   4.0195   4.8943   8.2861   9.5187   9.7722  14.0515

     occupation numbers 
     1.0000   1.0000   1.0000   1.0000   0.0000   0.0000   0.0000   0.0000

          k =-0.1414-0.2828 0.2828 (  1621 PWs)   bands (ev):

    -4.3408   0.8271   4.0778   5.2316   8.4948   9.7073   9.7760  13.0661

     occupation numbers 
     1.0000   1.0000   1.0000   1.0000   0.0000   0.0000   0.0000   0.0000

          k =-0.0707-0.2121 0.2121 (  1605 PWs)   bands (ev):

    -5.0194   2.4839   4.3524   5.6406   8.8102   9.4715   9.8007  12.0263

     occupation numbers 
     1.0000   1.0000   1.0000   1.0000   0.0000   0.0000   0.0000   0.0000

          k = 0.0000-0.1414 0.1414 (  1600 PWs)   bands (ev):

    -5.4866   4.1023   4.9656   5.9696   9.0232   9.0790   9.2024  11.2818

     occupation numbers 
     1.0000   1.0000   1.0000   1.0000   0.0000   0.0000   0.0000   0.0000

          k = 0.2828 0.0000 0.0000 (  1607 PWs)   bands (ev):

    -5.1380   3.5154   4.6428   4.6428   7.5235   9.9412  11.0044  11.0044

     occupation numbers 
     1.0000   1.0000   1.0000   1.0000   0.0000   0.0000   0.0000   0.0000

          k = 0.3536 0.0707-0.0707 (  1623 PWs)   bands (ev):

    -4.6711   2.2647   4.1276   4.2934   7.6211   9.5014  11.2542  11.5919

     occupation numbers 
     1.0000   1.0000   1.0000   1.0000   0.0000   0.0000   0.0000   0.0000

          k = 0.4243 0.1414-0.1414 (  1626 PWs)   bands (ev):

    -3.9932   0.8201   3.4917   4.1342   7.8292  10.1433  11.0239  11.5345

     occupation numbers 
     1.0000   1.0000   1.0000   1.0000   0.0000   0.0000   0.0000   0.0000

          k =-0.2121-0.4950 0.4950 (  1617 PWs)   bands (ev):

    -3.2567  -0.3729   2.9778   4.1797   7.8913  10.7779  11.1979  11.7194

     occupation numbers 
     1.0000   1.0000   1.0000   1.0000   0.0000   0.0000   0.0000   0.0000

          k =-0.1414-0.4243 0.4243 (  1596 PWs)   bands (ev):

    -3.1014  -0.5839   2.6759   4.4206   8.1121  10.6780  10.8929  13.6353

     occupation numbers 
     1.0000   1.0000   1.0000   1.0000   0.0000   0.0000   0.0000   0.0000

          k =-0.0707-0.3536 0.3536 (  1610 PWs)   bands (ev):

    -3.7611   0.4118   2.6519   4.8216   8.5208  10.6261  10.6824  12.7721

     occupation numbers 
     1.0000   1.0000   1.0000   1.0000   0.0000   0.0000   0.0000   0.0000

          k = 0.0000-0.2828 0.2828 (  1610 PWs)   bands (ev):

    -4.4824   1.6565   3.1051   5.2965   8.9725  10.0935  10.3874  11.7935

     occupation numbers 
     1.0000   1.0000   1.0000   1.0000   0.0000   0.0000   0.0000   0.0000

          k = 0.4243 0.0000 0.0000 (  1620 PWs)   bands (ev):

    -4.2824   1.7242   3.8985   3.8985   6.9090   8.4493  12.7576  12.7576

     occupation numbers 
     1.0000   1.0000   1.0000   1.0000   0.0000   0.0000   0.0000   0.0000

          k = 0.4950 0.0707-0.0707 (  1625 PWs)   bands (ev):

    -3.6678   0.7175   3.2589   3.6933   7.0967   8.2850  13.0489  13.1709

     occupation numbers 
     1.0000   1.0000   1.0000   1.0000   0.0000   0.0000   0.0000   0.0000

          k =-0.1414-0.5657 0.5657 (  1627 PWs)   bands (ev):

    -2.9136  -0.2920   2.4158   3.7008   7.2690   9.4378  12.8597  12.9120

     occupation numbers 
     1.0000   1.0000   1.0000   1.0000   0.0000   0.0000   0.0000   0.0000

          k =-0.0707-0.4950 0.4950 (  1621 PWs)   bands (ev):

    -2.4889  -0.7729   1.8549   3.9182   7.5043  11.2440  12.5110  12.6996

     occupation numbers 
     1.0000   1.0000   1.0000   1.0000   0.0000   0.0000   0.0000   0.0000

          k =-0.0000-0.4243 0.4243 (  1618 PWs)   bands (ev):

    -3.0310  -0.1805   1.8275   4.3178   7.9574  11.8484  12.1106  12.9131

     occupation numbers 
     1.0000   1.0000   1.0000   1.0000   0.0000   0.0000   0.0000   0.0000

          k = 0.5657 0.0000 0.0000 (  1628 PWs)   bands (ev):

    -3.1168  -0.0395   3.4321   3.4322   6.6184   7.3409  14.6069  14.6069

     occupation numbers 
     1.0000   1.0000   1.0000   1.0000   0.0000   0.0000   0.0000   0.0000

          k =-0.0707-0.6364 0.6364 (  1623 PWs)   bands (ev):

    -2.3854  -0.8808   2.8305   3.3837   6.8508   7.6183  14.8465  14.9389

     occupation numbers 
     1.0000   1.0000   1.0000   1.0000   0.0000   0.0000   0.0000   0.0000

          k = 0.0000-0.5657 0.5657 (  1622 PWs)   bands (ev):

    -1.9035  -1.3041   2.0309   3.5521   7.0649   9.2102  14.1913  14.7452

     occupation numbers 
     1.0000   1.0000   1.0000   1.0000   0.0000   0.0000   0.0000   0.0000

          k =-0.7071 0.0000 0.0000 (  1604 PWs)   bands (ev):

    -1.6816  -1.6816   3.2742   3.2742   6.7419   6.7419  16.1877  16.1877

     occupation numbers 
     1.0000   1.0000   1.0000   1.0000   0.0000   0.0000   0.0000   0.0000

          k = 0.2828 0.1414-0.0000 (  1613 PWs)   bands (ev):

    -4.9721   2.7599   4.0361   5.1665   8.4252   9.8281  10.6562  10.7682

     occupation numbers 
     1.0000   1.0000   1.0000   1.0000   0.0000   0.0000   0.0000   0.0000

          k = 0.3536 0.2121-0.0707 (  1609 PWs)   bands (ev):

    -4.3586   1.3450   3.4444   4.7872   8.7739   9.7021  10.7750  11.2154

     occupation numbers 
     1.0000   1.0000   1.0000   1.0000   0.0000   0.0000   0.0000   0.0000

          k =-0.2828-0.4243 0.5657 (  1618 PWs)   bands (ev):

    -3.6074  -0.0263   3.2142   4.4334   8.8267   9.3540  11.1516  12.1211

     occupation numbers 
     1.0000   1.0000   1.0000   1.0000   0.0000   0.0000   0.0000   0.0000

          k =-0.2121-0.3536 0.4950 (  1608 PWs)   bands (ev):

    -3.1432  -0.7105   3.1551   4.2942   8.8610   9.1578  11.1090  13.8558

     occupation numbers 
     1.0000   1.0000   1.0000   1.0000   0.0000   0.0000   0.0000   0.0000

          k = 0.4243 0.1414-0.0000 (  1617 PWs)   bands (ev):

    -4.1319   1.3661   3.3050   4.0398   7.8406   9.1036  11.2972  12.6434

     occupation numbers 
     1.0000   1.0000   1.0000   1.0000   0.0000   0.0000   0.0000   0.0000

          k =-0.2121-0.4950 0.6364 (  1621 PWs)   bands (ev):

    -3.4084   0.2607   2.6794   3.7055   8.2171   9.8122  10.9120  13.0323

     occupation numbers 
     1.0000   1.0000   1.0000   1.0000   0.0000   0.0000   0.0000   0.0000

          k =-0.1414-0.4243 0.5657 (  1613 PWs)   bands (ev):

    -2.7526  -0.6095   2.2675   3.6493   8.3978  10.4396  11.5831  12.9607

     occupation numbers 
     1.0000   1.0000   1.0000   1.0000   0.0000   0.0000   0.0000   0.0000

          k =-0.0707-0.3536 0.4950 (  1613 PWs)   bands (ev):

    -2.9557  -0.3478   2.1137   3.8920   8.7451  10.1850  12.0201  12.8144

     occupation numbers 
     1.0000   1.0000   1.0000   1.0000   0.0000   0.0000   0.0000   0.0000

          k = 0.0000-0.2828 0.4243 (  1619 PWs)   bands (ev):

    -3.6960   0.6067   2.4146   4.3377   9.2523   9.7376  10.7756  12.3520

     occupation numbers 
     1.0000   1.0000   1.0000   1.0000   0.0000   0.0000   0.0000   0.0000

          k =-0.1414-0.5657 0.7071 (  1625 PWs)   bands (ev):

    -2.9973  -0.1242   2.8923   3.2235   7.5384   8.1168  12.8425  14.5935

     occupation numbers 
     1.0000   1.0000   1.0000   1.0000   0.0000   0.0000   0.0000   0.0000

          k =-0.0707-0.4950 0.6364 (  1625 PWs)   bands (ev):

    -2.2545  -0.9001   2.1765   3.1309   7.8858   9.3401  12.4333  14.2157

     occupation numbers 
     1.0000   1.0000   1.0000   1.0000   0.0000   0.0000   0.0000   0.0000

          k =-0.0000-0.4243 0.5657 (  1614 PWs)   bands (ev):

    -2.2572  -0.8756   1.7539   3.4032   8.2173  11.1696  12.0444  12.3530

     occupation numbers 
     1.0000   1.0000   1.0000   1.0000   0.0000   0.0000   0.0000   0.0000

          k =-0.7071 0.1414 0.0000 (  1624 PWs)   bands (ev):

    -1.6269  -1.6269   2.8500   2.8500   7.6096   7.6096  14.5744  14.5744

     occupation numbers 
     1.0000   1.0000   1.0000   1.0000   0.0000   0.0000   0.0000   0.0000

          k =-0.1414-0.4243 0.7071 (  1616 PWs)   bands (ev):

    -2.6729  -0.4226   2.1172   3.1162   9.4630   9.8196  10.5171  13.8604

     occupation numbers 
     1.0000   1.0000   1.0000   1.0000   0.0000   0.0000   0.0000   0.0000

          k =-0.0707-0.3536 0.6364 (  1618 PWs)   bands (ev):

    -2.1581  -0.9335   1.9569   2.8613   9.7257  10.0624  11.4662  11.9224

     occupation numbers 
     1.0000   1.0000   1.0000   1.0000   0.0000   0.0000   0.0000   0.0000

          k =-0.7071 0.2828 0.0000 (  1626 PWs)   bands (ev):

    -1.5302  -1.5302   2.3231   2.3231   9.4909   9.4909  12.0037  12.0037

     occupation numbers 
     1.0000   1.0000   1.0000   1.0000   0.0000   0.0000   0.0000   0.0000

     the Fermi energy is     6.5529 ev
     (compare with:     6.5698 eV, computed in scf)

     Writing all to output data dir ./temp/silicon.save/ :
     XML data file, pseudopotentials, collected wavefunctions

     init_run     :      0.26s CPU      0.30s WALL (       1 calls)
     electrons    :      3.89s CPU      4.58s WALL (       1 calls)

     Called by init_run:
     wfcinit      :      0.00s CPU      0.00s WALL (       1 calls)
     wfcinit:atom :      0.00s CPU      0.00s WALL (      47 calls)
     wfcinit:wfcr :      0.10s CPU      0.13s WALL (      47 calls)
     potinit      :      0.07s CPU      0.08s WALL (       1 calls)
     hinit0       :      0.16s CPU      0.18s WALL (       1 calls)

     Called by electrons:
     c_bands      :      3.88s CPU      4.55s WALL (       1 calls)
     v_of_rho     :      0.00s CPU      0.00s WALL (       1 calls)
     v_h          :      0.00s CPU      0.00s WALL (       1 calls)
     v_xc         :      0.00s CPU      0.00s WALL (       1 calls)
     newd         :      0.01s CPU      0.01s WALL (       1 calls)
     PAW_pot      :      0.06s CPU      0.08s WALL (       1 calls)

     Called by c_bands:
     init_us_2    :      0.00s CPU      0.00s WALL (      47 calls)
     cegterg      :      3.74s CPU      4.38s WALL (     115 calls)

     Called by sum_band:

     Called by *egterg:
     cdiaghg      :      0.23s CPU      0.26s WALL (    1952 calls)
     cegterg:over :      0.30s CPU      0.39s WALL (    1905 calls)
     cegterg:upda :      0.08s CPU      0.08s WALL (    1905 calls)
     cegterg:last :      0.20s CPU      0.22s WALL (    1261 calls)
     h_psi        :      2.69s CPU      3.15s WALL (    2067 calls)
     s_psi        :      0.19s CPU      0.22s WALL (    2067 calls)
     g_psi        :      0.01s CPU      0.01s WALL (    1905 calls)

     Called by h_psi:
     h_psi:calbec :      0.28s CPU      0.34s WALL (    2067 calls)
     vloc_psi     :      2.20s CPU      2.58s WALL (    2067 calls)
     add_vuspsi   :      0.19s CPU      0.21s WALL (    2067 calls)

     General routines
     calbec       :      0.27s CPU      0.33s WALL (    2067 calls)
     fft          :      0.12s CPU      0.13s WALL (      12 calls)
     fftw         :      2.02s CPU      2.37s WALL (   21352 calls)
     davcio       :      0.00s CPU      0.00s WALL (      94 calls)

     Parallel routines

     PAW routines
     PAW_pot      :      0.06s CPU      0.08s WALL (       1 calls)

     PWSCF        :      4.52s CPU      5.37s WALL


   This run was terminated on:  20:24: 6  21Dec2024            

=------------------------------------------------------------------------------=
   JOB DONE.
=------------------------------------------------------------------------------=
