
     Program PWSCF v.7.3.1 starts on 25Dec2024 at 22:25: 1 

     This program is part of the open-source Quantum ESPRESSO suite
     for quantum simulation of materials; please cite
         "P. Giannozzi et al., J. Phys.:Condens. Matter 21 395502 (2009);
         "P. Giannozzi et al., J. Phys.:Condens. Matter 29 465901 (2017);
         "P. Giannozzi et al., J. Chem. Phys. 152 154105 (2020);
          URL http://www.quantum-espresso.org", 
     in publications or presentations arising from this work. More details at
     http://www.quantum-espresso.org/quote

     Parallel version (MPI), running on     4 processors

     MPI processes distributed on     1 nodes
     8977 MiB available memory on the printing compute node when the environment starts

     Reading input from vc_relax.in

     Current dimensions of program PWSCF are:
     Max number of different atomic species (ntypx) = 10
     Max number of k-points (npk) =  40000
     Max angular momentum in pseudopotentials (lmaxx) =  4
     file C.pbesol-n-kjpaw_psl.1.0.0.UPF: wavefunction(s)  2S 2P renormalized

     R & G space division:  proc/nbgrp/npool/nimage =       4
     Subspace diagonalization in iterative solution of the eigenvalue problem:
     a serial algorithm will be used


     Parallelization info
     --------------------
     sticks:   dense  smooth     PW     G-vecs:    dense   smooth      PW
     Min         118      60     21                 6686     2388     447
     Max         119      61     22                 6699     2397     454
     Sum         475     241     85                26777     9563    1799

     Using Slab Decomposition



     bravais-lattice index     =            4
     lattice parameter (alat)  =       4.6625  a.u.
     unit-cell volume          =     277.6091 (a.u.)^3
     number of atoms/cell      =            4
     number of atomic types    =            1
     number of electrons       =        16.00
     number of Kohn-Sham states=           12
     kinetic-energy cutoff     =      40.0000  Ry
     charge density cutoff     =     320.0000  Ry
     scf convergence threshold =      1.0E-07
     mixing beta               =       0.7000
     number of iterations used =            8  plain     mixing
     energy convergence thresh.=      1.0E-05
     force convergence thresh. =      1.0E-04
     press convergence thresh. =      5.0E-01
     Exchange-correlation= SLA  PW   PSX  PSC
                           (   1   4  10   8   0   0   0)
     nstep                     =           50


     celldm(1)=   4.662505  celldm(2)=   0.000000  celldm(3)=   3.162607
     celldm(4)=   0.000000  celldm(5)=   0.000000  celldm(6)=   0.000000

     crystal axes: (cart. coord. in units of alat)
               a(1) = (   1.000000   0.000000   0.000000 )  
               a(2) = (  -0.500000   0.866025   0.000000 )  
               a(3) = (   0.000000   0.000000   3.162607 )  

     reciprocal axes: (cart. coord. in units 2 pi/alat)
               b(1) = (  1.000000  0.577350 -0.000000 )  
               b(2) = (  0.000000  1.154701  0.000000 )  
               b(3) = (  0.000000 -0.000000  0.316195 )  


     PseudoPot. # 1 for C  read from file:
     ./../../pseudos/C.pbesol-n-kjpaw_psl.1.0.0.UPF
     MD5 check sum: f9b2fe17d1f478429498b05d17159f9e
     Pseudo is Projector augmented-wave + core cor, Zval =  4.0
     Generated using &quot;atomic&quot; code by A. Dal Corso  v.6.3
     Shape of augmentation charge: PSQ
     Using radial grid of 1073 points,  4 beta functions with: 
                l(1) =   0
                l(2) =   0
                l(3) =   1
                l(4) =   1
     Q(r) pseudized with 0 coefficients 


     atomic species   valence    mass     pseudopotential
     C                 4.00    12.01100     C ( 1.00)

     24 Sym. Ops., with inversion, found (12 have fractional translation)



   Cartesian axes

     site n.     atom                  positions (alat units)
         1        C      tau(   1) = (   0.0000000   0.0000000   0.7906518  )
         2        C      tau(   2) = (   0.0000000   0.0000000   2.3719553  )
         3        C      tau(   3) = (   0.0000000   0.5773503   0.7906518  )
         4        C      tau(   4) = (   0.5000000   0.2886751   2.3719553  )

     --------------------------------------------
     DFT-D3 Dispersion Correction (3-body terms):
     --------------------------------------------
       Reference C6 values for interpolation: 

         atom   Coordination number   C6
         C          0.000            98.23
         C          0.987            86.49
         C          1.998            58.72
         C          2.999            51.56
         C          3.984            36.41

       Values used:

         atom   Coordination number  R0_AB[au]  C6      C8
         C          3.313            2.750     48.31   1397.35
         C          3.313            2.750     48.31   1397.35
         C          3.313            2.750     48.32   1397.37
         C          3.313            2.750     48.32   1397.37

         Molecular C6 ( Ry / a.u.^6 ) =       773.04


     number of k points=    57  Gaussian smearing, width (Ry)=  0.0200
                       cart. coord. in units 2pi/alat
        k(    1) = (   0.0000000   0.0000000   0.0000000), wk =   0.0034722
        k(    2) = (   0.0000000   0.0000000   0.0790487), wk =   0.0069444
        k(    3) = (   0.0000000   0.0000000  -0.1580974), wk =   0.0034722
        k(    4) = (   0.0000000   0.0962250   0.0000000), wk =   0.0208333
        k(    5) = (   0.0000000   0.0962250   0.0790487), wk =   0.0416667
        k(    6) = (   0.0000000   0.0962250  -0.1580974), wk =   0.0208333
        k(    7) = (   0.0000000   0.1924501   0.0000000), wk =   0.0208333
        k(    8) = (   0.0000000   0.1924501   0.0790487), wk =   0.0416667
        k(    9) = (   0.0000000   0.1924501  -0.1580974), wk =   0.0208333
        k(   10) = (   0.0000000   0.2886751   0.0000000), wk =   0.0208333
        k(   11) = (   0.0000000   0.2886751   0.0790487), wk =   0.0416667
        k(   12) = (   0.0000000   0.2886751  -0.1580974), wk =   0.0208333
        k(   13) = (   0.0000000   0.3849002   0.0000000), wk =   0.0208333
        k(   14) = (   0.0000000   0.3849002   0.0790487), wk =   0.0416667
        k(   15) = (   0.0000000   0.3849002  -0.1580974), wk =   0.0208333
        k(   16) = (   0.0000000   0.4811252   0.0000000), wk =   0.0208333
        k(   17) = (   0.0000000   0.4811252   0.0790487), wk =   0.0416667
        k(   18) = (   0.0000000   0.4811252  -0.1580974), wk =   0.0208333
        k(   19) = (   0.0000000  -0.5773503   0.0000000), wk =   0.0104167
        k(   20) = (   0.0000000  -0.5773503   0.0790487), wk =   0.0208333
        k(   21) = (   0.0000000  -0.5773503  -0.1580974), wk =   0.0104167
        k(   22) = (   0.0833333   0.1443376   0.0000000), wk =   0.0208333
        k(   23) = (   0.0833333   0.1443376   0.0790487), wk =   0.0416667
        k(   24) = (   0.0833333   0.1443376  -0.1580974), wk =   0.0208333
        k(   25) = (   0.0833333   0.2405626   0.0000000), wk =   0.0416667
        k(   26) = (   0.0833333   0.2405626   0.0790487), wk =   0.0833333
        k(   27) = (   0.0833333   0.2405626  -0.1580974), wk =   0.0416667
        k(   28) = (   0.0833333   0.3367877   0.0000000), wk =   0.0416667
        k(   29) = (   0.0833333   0.3367877   0.0790487), wk =   0.0833333
        k(   30) = (   0.0833333   0.3367877  -0.1580974), wk =   0.0416667
        k(   31) = (   0.0833333   0.4330127   0.0000000), wk =   0.0416667
        k(   32) = (   0.0833333   0.4330127   0.0790487), wk =   0.0833333
        k(   33) = (   0.0833333   0.4330127  -0.1580974), wk =   0.0416667
        k(   34) = (   0.0833333   0.5292377   0.0000000), wk =   0.0416667
        k(   35) = (   0.0833333   0.5292377   0.0790487), wk =   0.0833333
        k(   36) = (   0.0833333   0.5292377  -0.1580974), wk =   0.0416667
        k(   37) = (   0.1666667   0.2886751   0.0000000), wk =   0.0208333
        k(   38) = (   0.1666667   0.2886751   0.0790487), wk =   0.0416667
        k(   39) = (   0.1666667   0.2886751  -0.1580974), wk =   0.0208333
        k(   40) = (   0.1666667   0.3849002   0.0000000), wk =   0.0416667
        k(   41) = (   0.1666667   0.3849002   0.0790487), wk =   0.0833333
        k(   42) = (   0.1666667   0.3849002  -0.1580974), wk =   0.0416667
        k(   43) = (   0.1666667   0.4811252   0.0000000), wk =   0.0416667
        k(   44) = (   0.1666667   0.4811252   0.0790487), wk =   0.0833333
        k(   45) = (   0.1666667   0.4811252  -0.1580974), wk =   0.0416667
        k(   46) = (   0.1666667   0.5773503   0.0000000), wk =   0.0208333
        k(   47) = (   0.1666667   0.5773503   0.0790487), wk =   0.0416667
        k(   48) = (   0.1666667   0.5773503  -0.1580974), wk =   0.0208333
        k(   49) = (   0.2500000   0.4330127   0.0000000), wk =   0.0208333
        k(   50) = (   0.2500000   0.4330127   0.0790487), wk =   0.0416667
        k(   51) = (   0.2500000   0.4330127  -0.1580974), wk =   0.0208333
        k(   52) = (   0.2500000   0.5292377   0.0000000), wk =   0.0416667
        k(   53) = (   0.2500000   0.5292377   0.0790487), wk =   0.0833333
        k(   54) = (   0.2500000   0.5292377  -0.1580974), wk =   0.0416667
        k(   55) = (   0.3333333   0.5773503   0.0000000), wk =   0.0069444
        k(   56) = (   0.3333333   0.5773503   0.0790487), wk =   0.0138889
        k(   57) = (   0.3333333   0.5773503  -0.1580974), wk =   0.0069444

     Dense  grid:    26777 G-vectors     FFT dimensions: (  27,  27,  90)

     Smooth grid:     9563 G-vectors     FFT dimensions: (  20,  20,  60)

     Estimated max dynamical RAM per process >      13.48 MB

     Estimated total dynamical RAM >      53.94 MB

     Check: negative core charge=   -0.000011

     Initial potential from superposition of free atoms

     starting charge      15.9998, renormalised to      16.0000
     Starting wfcs are   16 randomized atomic wfcs
     Checking if some PAW data can be deallocated... 

     total cpu time spent up to now is        0.6 secs

     Self-consistent Calculation

     iteration #  1     ecut=    40.00 Ry     beta= 0.70
     Davidson diagonalization with overlap
     ethr =  1.00E-02,  avg # of iterations =  2.9

     total cpu time spent up to now is        1.6 secs

     total energy              =     -72.42890363 Ry
     estimated scf accuracy    <       0.37122049 Ry

     iteration #  2     ecut=    40.00 Ry     beta= 0.70
     Davidson diagonalization with overlap
     ethr =  2.32E-03,  avg # of iterations =  2.6

     total cpu time spent up to now is        2.0 secs

     total energy              =     -72.47805133 Ry
     estimated scf accuracy    <       0.00374557 Ry

     iteration #  3     ecut=    40.00 Ry     beta= 0.70
     Davidson diagonalization with overlap
     c_bands:  1 eigenvalues not converged
     ethr =  2.34E-05,  avg # of iterations =  7.2

     total cpu time spent up to now is        2.6 secs

     total energy              =     -72.47850968 Ry
     estimated scf accuracy    <       0.00026598 Ry

     iteration #  4     ecut=    40.00 Ry     beta= 0.70
     Davidson diagonalization with overlap
     ethr =  1.66E-06,  avg # of iterations =  4.1

     total cpu time spent up to now is        3.0 secs

     total energy              =     -72.47853342 Ry
     estimated scf accuracy    <       0.00000420 Ry

     iteration #  5     ecut=    40.00 Ry     beta= 0.70
     Davidson diagonalization with overlap
     ethr =  2.63E-08,  avg # of iterations =  2.9

     total cpu time spent up to now is        3.4 secs

     total energy              =     -72.47853547 Ry
     estimated scf accuracy    <       0.00000029 Ry

     iteration #  6     ecut=    40.00 Ry     beta= 0.70
     Davidson diagonalization with overlap
     ethr =  1.78E-09,  avg # of iterations =  2.1

     total cpu time spent up to now is        3.8 secs

     End of self-consistent calculation

          k = 0.0000 0.0000 0.0000 (  1193 PWs)   bands (ev):

   -14.1529 -14.0668  -2.6970  -1.8294   2.3528   2.3528   2.3571   2.3571
     8.6153  13.6477  13.6478  13.6615

          k = 0.0000 0.0000 0.0790 (  1212 PWs)   bands (ev):

   -14.1405 -14.0797  -2.5828  -1.9715   2.3531   2.3531   2.3558   2.3558
     9.0683  11.8824  13.6497  13.6504

          k = 0.0000 0.0000-0.1581 (  1194 PWs)   bands (ev):

   -14.1102 -14.1102  -2.2905  -2.2905   2.3544   2.3544   2.3544   2.3544
    10.2870  10.2870  13.6543  13.6543

          k = 0.0000 0.0962 0.0000 (  1206 PWs)   bands (ev):

   -13.9885 -13.9033  -2.4977  -1.6368   1.7009   1.7072   2.0107   2.0163
     8.8253  13.6980  13.7291  14.3461

          k = 0.0000 0.0962 0.0790 (  1197 PWs)   bands (ev):

   -13.9762 -13.9161  -2.3843  -1.7776   1.7017   1.7066   2.0120   2.0157
     9.2757  12.0719  13.7099  13.7266

          k = 0.0000 0.0962-0.1581 (  1182 PWs)   bands (ev):

   -13.9463 -13.9463  -2.0943  -2.0943   1.7043   1.7043   2.0141   2.0141
    10.4872  10.4872  13.7196  13.7198

          k = 0.0000 0.1925 0.0000 (  1182 PWs)   bands (ev):

   -13.4969 -13.4148  -1.9044  -1.0648   0.0591   0.0736   1.2133   1.2209
     9.4561  13.5580  13.6173  13.6860

          k = 0.0000 0.1925 0.0790 (  1184 PWs)   bands (ev):

   -13.4850 -13.4270  -1.7934  -1.2017   0.0612   0.0710   1.2140   1.2198
     9.8977  12.6246  13.6499  13.6818

          k = 0.0000 0.1925-0.1581 (  1194 PWs)   bands (ev):

   -13.4563 -13.4563  -1.5104  -1.5104   0.0657   0.0657   1.2170   1.2170
    11.0839  11.0839  13.6658  13.6658

          k = 0.0000 0.2887 0.0000 (  1186 PWs)   bands (ev):

   -12.6840 -12.6068  -2.0447  -2.0215  -0.9342  -0.1343   0.3280   0.3383
    10.5046  12.4747  12.6935  13.3205

          k = 0.0000 0.2887 0.0790 (  1192 PWs)   bands (ev):

   -12.6729 -12.6183  -2.0416  -2.0250  -0.8280  -0.2642   0.3294   0.3369
    10.9213  12.5056  12.6343  13.2835

          k = 0.0000 0.2887-0.1581 (  1174 PWs)   bands (ev):

   -12.6457 -12.6457  -2.0334  -2.0334  -0.5576  -0.5576   0.3337   0.3337
    11.9838  11.9840  12.7011  12.7016

          k = 0.0000 0.3849 0.0000 (  1192 PWs)   bands (ev):

   -11.5615 -11.4910  -4.2550  -4.2214  -0.4081  -0.3967   0.3686   1.0985
    10.0939  10.4520  11.9522  12.9834

          k = 0.0000 0.3849 0.0790 (  1184 PWs)   bands (ev):

   -11.5513 -11.5015  -4.2499  -4.2261  -0.4063  -0.3987   0.4665   0.9813
    10.1320  10.3878  12.3608  12.9930

          k = 0.0000 0.3849-0.1581 (  1182 PWs)   bands (ev):

   -11.5266 -11.5266  -4.2380  -4.2380  -0.4024  -0.4024   0.7144   0.7144
    10.2482  10.2482  12.9705  12.9705

          k = 0.0000 0.4811 0.0000 (  1196 PWs)   bands (ev):

   -10.1587 -10.0968  -6.3632  -6.3207  -0.8822  -0.8715   1.8640   2.4445
     7.9163   8.3484  12.7279  12.8368

          k = 0.0000 0.4811 0.0790 (  1193 PWs)   bands (ev):

   -10.1497 -10.1060  -6.3570  -6.3268  -0.8808  -0.8728   1.9445   2.3545
     7.9657   8.2717  12.7453  12.8229

          k = 0.0000 0.4811-0.1581 (  1188 PWs)   bands (ev):

   -10.1280 -10.1280  -6.3419  -6.3419  -0.8767  -0.8767   2.1448   2.1448
     8.1056   8.1056  12.7853  12.7853

          k = 0.0000-0.5774 0.0000 (  1188 PWs)   bands (ev):

    -8.8589  -8.8291  -7.8803  -7.8568  -1.0450  -1.0343   2.8499   3.1292
     6.8654   7.2195  12.6445  12.7654

          k = 0.0000-0.5774 0.0790 (  1190 PWs)   bands (ev):

    -8.8543  -8.8333  -7.8772  -7.8606  -1.0434  -1.0358   2.8948   3.0934
     6.8943   7.1452  12.6619  12.7475

          k = 0.0000-0.5774-0.1581 (  1204 PWs)   bands (ev):

    -8.8437  -8.8437  -7.8693  -7.8693  -1.0398  -1.0398   2.9983   2.9983
     6.9972   6.9972  12.7042  12.7042

          k = 0.0833 0.1443 0.0000 (  1195 PWs)   bands (ev):

   -13.6605 -13.5774  -2.1013  -1.2544   0.6686   0.6753   1.3282   1.3333
     9.2464  13.3941  13.9692  14.0249

          k = 0.0833 0.1443 0.0790 (  1192 PWs)   bands (ev):

   -13.6485 -13.5898  -1.9895  -1.3927   0.6695   0.6743   1.3291   1.3328
     9.6912  12.4489  13.9948  14.0204

          k = 0.0833 0.1443-0.1581 (  1192 PWs)   bands (ev):

   -13.6193 -13.6193  -1.7040  -1.7040   0.6719   0.6719   1.3307   1.3307
    10.8873  10.8873  14.0095  14.0096

          k = 0.0833 0.2406 0.0000 (  1191 PWs)   bands (ev):

   -13.0082 -12.9291  -1.3186  -1.0451  -1.0297  -0.5017   0.3226   0.3321
    10.0882  13.3679  13.5005  14.0921

          k = 0.0833 0.2406 0.0790 (  1192 PWs)   bands (ev):

   -12.9968 -12.9409  -1.2103  -1.0429  -1.0319  -0.6347   0.3239   0.3305
    10.5198  13.1327  13.4003  13.5566

          k = 0.0833 0.2406-0.1581 (  1192 PWs)   bands (ev):

   -12.9691 -12.9691  -1.0375  -1.0375  -0.9345  -0.9345   0.3272   0.3272
    11.6764  11.6764  13.4558  13.4559

          k = 0.0833 0.3368 0.0000 (  1189 PWs)   bands (ev):

   -12.0404 -11.9671  -3.1259  -3.0987  -0.5676  -0.5550  -0.1767   0.5875
    11.1630  11.3435  11.4245  13.8407

          k = 0.0833 0.3368 0.0790 (  1187 PWs)   bands (ev):

   -12.0299 -11.9780  -3.1218  -3.1026  -0.5659  -0.5569  -0.0748   0.4641
    11.1743  11.3738  11.7893  13.8183

          k = 0.0833 0.3368-0.1581 (  1184 PWs)   bands (ev):

   -12.0041 -12.0041  -3.1121  -3.1121  -0.5615  -0.5615   0.1840   0.1840
    11.2686  11.2686  12.8849  12.8849

          k = 0.0833 0.4330 0.0000 (  1189 PWs)   bands (ev):

   -10.7752 -10.7093  -5.2567  -5.2192  -1.2046  -1.1901   1.2508   1.9180
     8.8924   9.2688  12.9790  13.5577

          k = 0.0833 0.4330 0.0790 (  1189 PWs)   bands (ev):

   -10.7657 -10.7192  -5.2512  -5.2248  -1.2024  -1.1922   1.3413   1.8121
     8.9382   9.2053  13.3227  13.5745

          k = 0.0833 0.4330-0.1581 (  1186 PWs)   bands (ev):

   -10.7426 -10.7426  -5.2380  -5.2380  -1.1973  -1.1973   1.5691   1.5691
     9.0628   9.0628  13.5828  13.5828

          k = 0.0833 0.5292 0.0000 (  1191 PWs)   bands (ev):

    -9.2821  -9.2283  -7.2095  -7.1666  -1.5339  -1.5187   2.6755   3.0995
     7.1307   7.5001  13.3765  13.5105

          k = 0.0833 0.5292 0.0790 (  1184 PWs)   bands (ev):

    -9.2743  -9.2362  -7.2033  -7.1729  -1.5316  -1.5208   2.7380   3.0381
     7.1680   7.4300  13.3959  13.4908

          k = 0.0833 0.5292-0.1581 (  1188 PWs)   bands (ev):

    -9.2554  -9.2554  -7.1881  -7.1881  -1.5262  -1.5262   2.8883   2.8883
     7.2827   7.2827  13.4428  13.4429

          k = 0.1667 0.2887 0.0000 (  1185 PWs)   bands (ev):

   -12.2011 -12.1268  -2.3672  -2.3547  -1.0509  -1.0416  -0.3607   0.4144
    11.1388  11.6528  11.8239  14.8755

          k = 0.1667 0.2887 0.0790 (  1190 PWs)   bands (ev):

   -12.1904 -12.1379  -2.3653  -2.3564  -1.0496  -1.0430  -0.2576   0.2888
    11.5501  11.6775  11.7996  14.0552

          k = 0.1667 0.2887-0.1581 (  1190 PWs)   bands (ev):

   -12.1644 -12.1644  -2.3610  -2.3610  -1.0463  -1.0463   0.0046   0.0046
    11.7374  11.7374  12.6531  12.6531

          k = 0.1667 0.3849 0.0000 (  1191 PWs)   bands (ev):

   -11.0895 -11.0217  -4.1034  -4.0771  -2.1136  -2.0963   0.9271   1.6320
     9.6714   9.9107  12.5929  15.4501

          k = 0.1667 0.3849 0.0790 (  1187 PWs)   bands (ev):

   -11.0797 -11.0318  -4.0995  -4.0810  -2.1110  -2.0988   1.0219   1.5191
     9.7043   9.8742  12.9682  15.1063

          k = 0.1667 0.3849-0.1581 (  1194 PWs)   bands (ev):

   -11.0559 -11.0559  -4.0903  -4.0903  -2.1050  -2.1050   1.2615   1.2615
     9.7875   9.7875  13.9493  13.9493

          k = 0.1667 0.4811 0.0000 (  1179 PWs)   bands (ev):

    -9.7064  -9.6473  -6.0269  -5.9887  -2.6897  -2.6677   2.4210   2.9885
     7.7229   8.0362  14.4137  15.2388

          k = 0.1667 0.4811 0.0790 (  1186 PWs)   bands (ev):

    -9.6978  -9.6561  -6.0214  -5.9945  -2.6866  -2.6711   2.4995   2.9005
     7.7622   7.9845  14.7013  15.2553

          k = 0.1667 0.4811-0.1581 (  1182 PWs)   bands (ev):

    -9.6771  -9.6771  -6.0079  -6.0079  -2.6788  -2.6788   2.6952   2.6952
     7.8677   7.8677  15.2310  15.2310

          k = 0.1667 0.5774 0.0000 (  1176 PWs)   bands (ev):

    -8.4386  -8.4103  -7.4726  -7.4519  -2.8744  -2.8512   3.4494   3.7234
     6.7259   6.9175  15.1395  15.3630

          k = 0.1667 0.5774 0.0790 (  1174 PWs)   bands (ev):

    -8.4342  -8.4142  -7.4699  -7.4552  -2.8711  -2.8545   3.4942   3.6888
     6.7372   6.8745  15.1666  15.3233

          k = 0.1667 0.5774-0.1581 (  1176 PWs)   bands (ev):

    -8.4241  -8.4241  -7.4629  -7.4629  -2.8629  -2.8629   3.5963   3.5963
     6.7901   6.7901  15.2370  15.2370

          k = 0.2500 0.4330 0.0000 (  1183 PWs)   bands (ev):

    -9.8558  -9.7955  -5.1241  -5.1054  -3.6108  -3.5963   2.3164   2.9278
     8.0644   8.2907  14.2156  16.1166

          k = 0.2500 0.4330 0.0790 (  1183 PWs)   bands (ev):

    -9.8470  -9.8045  -5.1214  -5.1081  -3.6088  -3.5985   2.3996   2.8316
     8.0975   8.2573  14.4809  15.7842

          k = 0.2500 0.4330-0.1581 (  1192 PWs)   bands (ev):

    -9.8259  -9.8259  -5.1147  -5.1147  -3.6038  -3.6038   2.6090   2.6090
     8.1770   8.1770  15.1156  15.1156

          k = 0.2500 0.5292 0.0000 (  1169 PWs)   bands (ev):

    -8.4205  -8.3723  -6.5613  -6.5291  -4.3227  -4.2980   3.7912   4.2140
     6.5569   6.7701  16.1097  16.1548

          k = 0.2500 0.5292 0.0790 (  1171 PWs)   bands (ev):

    -8.4136  -8.3794  -6.5565  -6.5338  -4.3192  -4.3017   3.8525   4.1521
     6.5833   6.7345  15.8270  15.9383

          k = 0.2500 0.5292-0.1581 (  1180 PWs)   bands (ev):

    -8.3965  -8.3965  -6.5453  -6.5453  -4.3106  -4.3106   4.0020   4.0020
     6.6537   6.6537  15.7236  15.7236

          k = 0.3333 0.5774 0.0000 (  1173 PWs)   bands (ev):

    -7.1960  -7.1711  -7.1711  -7.1475  -5.2315  -5.2315   5.1083   5.3572
     5.3572   5.6280  15.9309  15.9309

          k = 0.3333 0.5774 0.0790 (  1173 PWs)   bands (ev):

    -7.1889  -7.1710  -7.1710  -7.1547  -5.2316  -5.2316   5.1800   5.3599
     5.3599   5.5468  15.6853  15.6853

          k = 0.3333 0.5774-0.1581 (  1182 PWs)   bands (ev):

    -7.1719  -7.1719  -7.1710  -7.1710  -5.2317  -5.2317   5.3583   5.3583
     5.3621   5.3621  15.5038  15.5038

     the Fermi energy is     5.3607 ev

!    total energy              =     -72.47853555 Ry
     total all-electron energy =      -303.594647 Ry
     estimated scf accuracy    <       0.00000004 Ry
     smearing contrib. (-TS)   =      -0.00052278 Ry
     internal energy E=F+TS    =     -72.47801277 Ry

     The total energy is F=E-TS. E is the sum of the following terms:
     one-electron contribution =     -22.93501564 Ry
     hartree contribution      =      18.85518496 Ry
     xc contribution           =     -18.30992148 Ry
     ewald contribution        =     -26.51210758 Ry
     DFT-D3 Dispersion         =      -0.01543152 Ry
     one-center paw contrib.   =     -23.56072151 Ry

     convergence has been achieved in   6 iterations

     Forces acting on atoms (cartesian axes, Ry/au):

     atom    1 type  1   force =    -0.00000000    0.00000000    0.00000000
     atom    2 type  1   force =     0.00000000    0.00000000    0.00000000
     atom    3 type  1   force =     0.00000000   -0.00000000    0.00000000
     atom    4 type  1   force =     0.00000000    0.00000000   -0.00000000

     Total force =     0.000000     Total SCF correction =     0.000000


     Computing stress (Cartesian axis) and pressure

          total   stress  (Ry/bohr**3)                   (kbar)     P=      -33.53
  -0.00027168   0.00000000  -0.00000000          -39.97        0.00       -0.00
   0.00000000  -0.00027168  -0.00000000            0.00      -39.97       -0.00
   0.00000000   0.00000000  -0.00014043            0.00        0.00      -20.66


     BFGS Geometry Optimization
     Energy error            =      0.0E+00 Ry
     Gradient error          =      1.2E-25 Ry/Bohr
     Cell gradient error     =      4.0E+01 kbar

     number of scf cycles    =   1
     number of bfgs steps    =   0

     enthalpy           new  =     -72.4785355469 Ry

     new trust radius        =       0.0226329117 bohr
ibrav =      4
 celldm(1) =      4.63083750
 celldm(3) =      3.17305496
Input lattice vectors:
     0.99320806     0.00000000     0.00000000
    -0.49660403     0.86014342     0.00000000
    -0.00000000    -0.00000000     3.15150378
New lattice vectors in INITIAL alat:
     0.99320806     0.00000000     0.00000000
    -0.49660403     0.86014342     0.00000000
     0.00000000     0.00000000     3.15150378
New lattice vectors in NEW alat (for information only):
     1.00000000     0.00000000     0.00000000
    -0.50000000     0.86602540     0.00000000
     0.00000000     0.00000000     3.17305496
Discrepancy in bohr =     0.000000    0.000000    0.000000
     new conv_thr            =       0.0000001000 Ry

     new unit-cell volume =    272.88952 a.u.^3 (    40.43805 Ang^3 )
     density =      1.97287 g/cm^3

CELL_PARAMETERS (alat=  4.66250493)
   0.993208065   0.000000000   0.000000000
  -0.496604032   0.860143415   0.000000000
   0.000000000   0.000000000   3.151503776

ATOMIC_POSITIONS (crystal)
C               -0.0000000000        0.0000000000        0.2500000000
C                0.0000000000        0.0000000000        0.7500000000
C                0.3333333330        0.6666666660        0.2500000000
C                0.6666666660        0.3333333330        0.7500000000



     Writing config-only to output data dir ./temp/graphite.save/ :
     XML data file
     NEW-OLD atomic charge density approx. for the potential

     Check: negative core charge=   -0.000011

     total cpu time spent up to now is        5.4 secs

     Self-consistent Calculation

     iteration #  1     ecut=    40.00 Ry     beta= 0.70
     Davidson diagonalization with overlap
     ethr =  1.00E-06,  avg # of iterations =  3.7

     total cpu time spent up to now is        6.3 secs

     total energy              =     -72.47867706 Ry
     estimated scf accuracy    <       0.00026076 Ry

     iteration #  2     ecut=    40.00 Ry     beta= 0.70
     Davidson diagonalization with overlap
     ethr =  1.63E-06,  avg # of iterations =  2.6

     total cpu time spent up to now is        6.7 secs

     total energy              =     -72.47872469 Ry
     estimated scf accuracy    <       0.00000154 Ry

     iteration #  3     ecut=    40.00 Ry     beta= 0.70
     Davidson diagonalization with overlap
     ethr =  9.63E-09,  avg # of iterations =  2.3

     total cpu time spent up to now is        7.1 secs

     End of self-consistent calculation

          k = 0.0000 0.0000 0.0000 (  1193 PWs)   bands (ev):

   -14.1423 -14.0545  -2.6650  -1.7881   2.5369   2.5369   2.5411   2.5411
     8.7295  13.0001  13.9587  13.9587

          k = 0.0000 0.0000 0.0793 (  1212 PWs)   bands (ev):

   -14.1297 -14.0676  -2.5495  -1.9317   2.5372   2.5372   2.5399   2.5399
     9.1867  12.0282  13.9606  13.9613

          k = 0.0000 0.0000-0.1587 (  1194 PWs)   bands (ev):

   -14.0988 -14.0988  -2.2542  -2.2542   2.5385   2.5385   2.5385   2.5385
    10.4169  10.4169  13.9652  13.9652

          k = 0.0000 0.0969 0.0000 (  1206 PWs)   bands (ev):

   -13.9759 -13.8891  -2.4624  -1.5922   1.8798   1.8863   2.1875   2.1930
     8.9421  13.1894  14.0120  14.0452

          k = 0.0000 0.0969 0.0793 (  1197 PWs)   bands (ev):

   -13.9634 -13.9021  -2.3477  -1.7346   1.8807   1.8856   2.1886   2.1924
     9.3967  12.2208  14.0250  14.0427

          k = 0.0000 0.0969-0.1587 (  1182 PWs)   bands (ev):

   -13.9329 -13.9329  -2.0546  -2.0546   1.8833   1.8833   2.1907   2.1907
    10.6197  10.6197  14.0354  14.0355

          k = 0.0000 0.1938 0.0000 (  1182 PWs)   bands (ev):

   -13.4783 -13.3946  -1.8593  -1.0103   0.2229   0.2375   1.3736   1.3813
     9.5811  13.7301  13.9489  14.0223

          k = 0.0000 0.1938 0.0793 (  1184 PWs)   bands (ev):

   -13.4663 -13.4071  -1.7470  -1.1488   0.2251   0.2349   1.3745   1.3802
    10.0269  12.7841  13.9834  14.0178

          k = 0.0000 0.1938-0.1587 (  1194 PWs)   bands (ev):

   -13.4369 -13.4369  -1.4609  -1.4609   0.2297   0.2297   1.3774   1.3774
    11.2251  11.2251  14.0016  14.0016

          k = 0.0000 0.2906 0.0000 (  1186 PWs)   bands (ev):

   -12.6554 -12.5768  -1.9030  -1.8796  -0.8728  -0.0635   0.4717   0.4818
    10.6435  12.7816  13.0033  13.6740

          k = 0.0000 0.2906 0.0793 (  1192 PWs)   bands (ev):

   -12.6441 -12.5885  -1.8999  -1.8832  -0.7654  -0.1949   0.4730   0.4804
    11.0653  12.8062  12.9380  13.6052

          k = 0.0000 0.2906-0.1587 (  1174 PWs)   bands (ev):

   -12.6164 -12.6164  -1.8916  -1.8916  -0.4918  -0.4918   0.4772   0.4772
    12.1535  12.1537  13.0022  13.0026

          k = 0.0000 0.3875 0.0000 (  1192 PWs)   bands (ev):

   -11.5186 -11.4469  -4.1388  -4.1049  -0.2779  -0.2666   0.4527   1.1919
    10.3471  10.7133  12.1129  13.3506

          k = 0.0000 0.3875 0.0793 (  1184 PWs)   bands (ev):

   -11.5083 -11.4576  -4.1337  -4.1097  -0.2761  -0.2685   0.5518   1.0731
    10.3852  10.6468  12.5332  13.3580

          k = 0.0000 0.3875-0.1587 (  1182 PWs)   bands (ev):

   -11.4831 -11.4831  -4.1217  -4.1217  -0.2722  -0.2722   0.8028   0.8028
    10.5035  10.5035  13.3026  13.3026

          k = 0.0000 0.4844 0.0000 (  1196 PWs)   bands (ev):

   -10.0955 -10.0325  -6.2750  -6.2319  -0.7604  -0.7497   1.9760   2.5648
     8.1213   8.5632  13.0999  13.2084

          k = 0.0000 0.4844 0.0793 (  1193 PWs)   bands (ev):

   -10.0864 -10.0419  -6.2687  -6.2381  -0.7590  -0.7510   2.0576   2.4735
     8.1717   8.4846  13.1186  13.1965

          k = 0.0000 0.4844-0.1587 (  1188 PWs)   bands (ev):

   -10.0643 -10.0643  -6.2534  -6.2534  -0.7549  -0.7549   2.2607   2.2607
     8.3145   8.3145  13.1596  13.1596

          k = 0.0000-0.5813 0.0000 (  1188 PWs)   bands (ev):

    -8.7535  -8.7232  -7.8365  -7.8128  -0.9261  -0.9153   2.9830   3.2656
     7.0454   7.4083  13.0208  13.1450

          k = 0.0000-0.5813 0.0793 (  1190 PWs)   bands (ev):

    -8.7488  -8.7274  -7.8334  -7.8166  -0.9245  -0.9168   3.0285   3.2293
     7.0750   7.3320  13.0387  13.1266

          k = 0.0000-0.5813-0.1587 (  1204 PWs)   bands (ev):

    -8.7379  -8.7379  -7.8255  -7.8255  -0.9207  -0.9207   3.1333   3.1333
     7.1804   7.1804  13.0821  13.0821

          k = 0.0839 0.1453 0.0000 (  1195 PWs)   bands (ev):

   -13.6439 -13.5592  -2.0594  -1.2032   0.8401   0.8468   1.4907   1.4956
     9.3686  13.5610  14.2854  14.3462

          k = 0.0839 0.1453 0.0793 (  1192 PWs)   bands (ev):

   -13.6317 -13.5718  -1.9464  -1.3430   0.8411   0.8459   1.4915   1.4951
     9.8177  12.6039  14.3133  14.3415

          k = 0.0839 0.1453-0.1587 (  1192 PWs)   bands (ev):

   -13.6020 -13.6020  -1.6578  -1.6578   0.8434   0.8434   1.4931   1.4931
    11.0256  11.0256  14.3300  14.3300

          k = 0.0839 0.2422 0.0000 (  1191 PWs)   bands (ev):

   -12.9837 -12.9031  -1.2637  -0.8898  -0.8742  -0.4374   0.4665   0.4761
    10.2216  13.6984  13.8247  14.4315

          k = 0.0839 0.2422 0.0793 (  1192 PWs)   bands (ev):

   -12.9721 -12.9151  -1.1542  -0.8876  -0.8765  -0.5719   0.4678   0.4744
    10.6576  13.3146  13.7331  13.8810

          k = 0.0839 0.2422-0.1587 (  1192 PWs)   bands (ev):

   -12.9438 -12.9438  -0.8838  -0.8838  -0.8736  -0.8736   0.4711   0.4711
    11.8267  11.8267  13.7908  13.7908

          k = 0.0839 0.3391 0.0000 (  1189 PWs)   bands (ev):

   -12.0038 -11.9292  -2.9944  -2.9670  -0.4380  -0.4253  -0.1023   0.6713
    11.4433  11.4940  11.7104  14.2053

          k = 0.0839 0.3391 0.0793 (  1187 PWs)   bands (ev):

   -11.9931 -11.9403  -2.9904  -2.9710  -0.4363  -0.4272   0.0009   0.5463
    11.4465  11.6553  11.9564  14.1575

          k = 0.0839 0.3391-0.1587 (  1184 PWs)   bands (ev):

   -11.9669 -11.9669  -2.9806  -2.9806  -0.4318  -0.4318   0.2628   0.2628
    11.5478  11.5478  13.0610  13.0610

          k = 0.0839 0.4360 0.0000 (  1189 PWs)   bands (ev):

   -10.7217 -10.6547  -5.1519  -5.1139  -1.0849  -1.0703   1.3508   2.0270
     9.1219   9.5068  13.1578  13.9335

          k = 0.0839 0.4360 0.0793 (  1189 PWs)   bands (ev):

   -10.7121 -10.6647  -5.1463  -5.1196  -1.0827  -1.0724   1.4424   1.9196
     9.1685   9.4416  13.5274  13.9481

          k = 0.0839 0.4360-0.1587 (  1186 PWs)   bands (ev):

   -10.6885 -10.6885  -5.1330  -5.1330  -1.0775  -1.0775   1.6733   1.6733
     9.2957   9.2957  13.9479  13.9479

          k = 0.0839 0.5329 0.0000 (  1191 PWs)   bands (ev):

    -9.2015  -9.1464  -7.1376  -7.0935  -1.4191  -1.4039   2.8037   3.2340
     7.3200   7.6986  13.7575  13.8952

          k = 0.0839 0.5329 0.0793 (  1184 PWs)   bands (ev):

    -9.1935  -9.1545  -7.1312  -7.1000  -1.4169  -1.4061   2.8671   3.1717
     7.3582   7.6266  13.7775  13.8749

          k = 0.0839 0.5329-0.1587 (  1188 PWs)   bands (ev):

    -9.1741  -9.1741  -7.1157  -7.1157  -1.4115  -1.4115   3.0196   3.0196
     7.4757   7.4757  13.8258  13.8258

          k = 0.1678 0.2906 0.0000 (  1185 PWs)   bands (ev):

   -12.1665 -12.0909  -2.2184  -2.2058  -0.9334  -0.9241  -0.2895   0.4949
    11.2867  11.9487  12.1228  15.0717

          k = 0.1678 0.2906 0.0793 (  1190 PWs)   bands (ev):

   -12.1557 -12.1022  -2.2165  -2.2076  -0.9322  -0.9255  -0.1852   0.3678
    11.7029  11.9738  12.0977  14.2394

          k = 0.1678 0.2906-0.1587 (  1190 PWs)   bands (ev):

   -12.1292 -12.1292  -2.2122  -2.2122  -0.9288  -0.9288   0.0801   0.0801
    12.0347  12.0347  12.8182  12.8182

          k = 0.1678 0.3875 0.0000 (  1191 PWs)   bands (ev):

   -11.0406 -10.9717  -3.9758  -3.9491  -2.0098  -1.9921   1.0208   1.7350
     9.9247  10.1686  12.7610  15.8245

          k = 0.1678 0.3875 0.0793 (  1187 PWs)   bands (ev):

   -11.0306 -10.9819  -3.9719  -3.9530  -2.0071  -1.9947   1.1169   1.6206
     9.9581  10.1314  13.1414  15.3257

          k = 0.1678 0.3875-0.1587 (  1194 PWs)   bands (ev):

   -11.0064 -11.0064  -3.9625  -3.9625  -2.0010  -2.0010   1.3595   1.3595
    10.0429  10.0429  14.1369  14.1369

          k = 0.1678 0.4844 0.0000 (  1179 PWs)   bands (ev):

    -9.6374  -9.5772  -5.9288  -5.8899  -2.5901  -2.5679   2.5426   3.1183
     7.9337   8.2541  14.6103  15.6307

          k = 0.1678 0.4844 0.0793 (  1186 PWs)   bands (ev):

    -9.6287  -9.5862  -5.9232  -5.8957  -2.5870  -2.5712   2.6221   3.0290
     7.9739   8.2013  14.9056  15.6435

          k = 0.1678 0.4844-0.1587 (  1182 PWs)   bands (ev):

    -9.6076  -9.6076  -5.9095  -5.9095  -2.5790  -2.5790   2.8207   2.8207
     8.0817   8.0817  15.5365  15.5365

          k = 0.1678 0.5813 0.0000 (  1176 PWs)   bands (ev):

    -8.3306  -8.3019  -7.4163  -7.3952  -2.7762  -2.7527   3.5926   3.8698
     6.9127   7.1109  15.5342  15.7683

          k = 0.1678 0.5813 0.0793 (  1174 PWs)   bands (ev):

    -8.3262  -8.3058  -7.4135  -7.3986  -2.7728  -2.7561   3.6379   3.8349
     6.9246   7.0666  15.5618  15.7251

          k = 0.1678 0.5813-0.1587 (  1176 PWs)   bands (ev):

    -8.3158  -8.3158  -7.4064  -7.4064  -2.7646  -2.7646   3.7413   3.7413
     6.9795   6.9795  15.6335  15.6335

          k = 0.2517 0.4360 0.0000 (  1183 PWs)   bands (ev):

    -9.7899  -9.7286  -4.9948  -4.9759  -3.5395  -3.5248   2.4353   3.0554
     8.2889   8.5184  14.4077  16.3400

          k = 0.2517 0.4360 0.0793 (  1183 PWs)   bands (ev):

    -9.7810  -9.7377  -4.9921  -4.9786  -3.5374  -3.5270   2.5197   2.9578
     8.3225   8.4846  14.6776  16.0049

          k = 0.2517 0.4360-0.1587 (  1192 PWs)   bands (ev):

    -9.7595  -9.7595  -4.9853  -4.9853  -3.5324  -3.5324   2.7320   2.7320
     8.4032   8.4032  15.3242  15.3242

          k = 0.2517 0.5329 0.0000 (  1169 PWs)   bands (ev):

    -8.3292  -8.2798  -6.4602  -6.4268  -4.2573  -4.2317   3.9384   4.3676
     6.7515   6.9683  16.3359  16.3734

          k = 0.2517 0.5329 0.0793 (  1171 PWs)   bands (ev):

    -8.3221  -8.2871  -6.4553  -6.4317  -4.2536  -4.2355   4.0007   4.3048
     6.7784   6.9321  16.0465  16.1592

          k = 0.2517 0.5329-0.1587 (  1180 PWs)   bands (ev):

    -8.3047  -8.3047  -6.4437  -6.4437  -4.2447  -4.2447   4.1523   4.1523
     6.8501   6.8501  15.9433  15.9433

          k = 0.3356 0.5813 0.0000 (  1173 PWs)   bands (ev):

    -7.0805  -7.0551  -7.0551  -7.0314  -5.2068  -5.2068   5.2802   5.5326
     5.5326   5.8063  16.1358  16.1358

          k = 0.3356 0.5813 0.0793 (  1173 PWs)   bands (ev):

    -7.0733  -7.0550  -7.0550  -7.0386  -5.2069  -5.2069   5.3527   5.5353
     5.5353   5.7241  15.8928  15.8928

          k = 0.3356 0.5813-0.1587 (  1182 PWs)   bands (ev):

    -7.0561  -7.0561  -7.0550  -7.0550  -5.2071  -5.2071   5.5332   5.5332
     5.5377   5.5377  15.7115  15.7116

     the Fermi energy is     5.5360 ev

!    total energy              =     -72.47872494 Ry
     total all-electron energy =      -303.594836 Ry
     estimated scf accuracy    <       0.00000009 Ry
     smearing contrib. (-TS)   =      -0.00052095 Ry
     internal energy E=F+TS    =     -72.47820399 Ry

     The total energy is F=E-TS. E is the sum of the following terms:
     one-electron contribution =     -22.98805228 Ry
     hartree contribution      =      18.98009968 Ry
     xc contribution           =     -18.37272069 Ry
     ewald contribution        =     -26.51878930 Ry
     DFT-D3 Dispersion         =      -0.01550919 Ry
     one-center paw contrib.   =     -23.56323221 Ry

     convergence has been achieved in   3 iterations

     Forces acting on atoms (cartesian axes, Ry/au):

     atom    1 type  1   force =     0.00000000   -0.00000000    0.00000000
     atom    2 type  1   force =    -0.00000000    0.00000000    0.00000000
     atom    3 type  1   force =    -0.00000000   -0.00000000    0.00000000
     atom    4 type  1   force =     0.00000000    0.00000000    0.00000000

     Total force =     0.000000     Total SCF correction =     0.000000


     Computing stress (Cartesian axis) and pressure

          total   stress  (Ry/bohr**3)                   (kbar)     P=       17.61
   0.00024859   0.00000000   0.00000000           36.57        0.00        0.00
   0.00000000   0.00024859   0.00000000            0.00       36.57        0.00
   0.00000000  -0.00000000  -0.00013804            0.00       -0.00      -20.31

     Energy error            =      1.9E-04 Ry
     Gradient error          =      2.0E-25 Ry/Bohr
     Cell gradient error     =      3.7E+01 kbar

     number of scf cycles    =   2
     number of bfgs steps    =   1

     enthalpy           old  =     -72.4785355469 Ry
     enthalpy           new  =     -72.4787249392 Ry

     CASE: enthalpy          _new < enthalpy          _old

     new trust radius        =       0.0092350375 bohr
ibrav =      4
 celldm(1) =      4.64378169
 celldm(3) =      3.15635741
Input lattice vectors:
     0.99598429     0.00000000     0.00000000
    -0.49799215     0.86254770    -0.00000000
     0.00000000    -0.00000000     3.14368241
New lattice vectors in INITIAL alat:
     0.99598429     0.00000000     0.00000000
    -0.49799215     0.86254770     0.00000000
     0.00000000     0.00000000     3.14368241
New lattice vectors in NEW alat (for information only):
     1.00000000     0.00000000     0.00000000
    -0.50000000     0.86602540     0.00000000
     0.00000000     0.00000000     3.15635741
Discrepancy in bohr =     0.000000    0.000000    0.000000
     new conv_thr            =       0.0000000010 Ry

     new unit-cell volume =    273.73617 a.u.^3 (    40.56352 Ang^3 )
     density =      1.96677 g/cm^3

CELL_PARAMETERS (alat=  4.66250493)
   0.995984295   0.000000000   0.000000000
  -0.497992147   0.862547701   0.000000000
   0.000000000   0.000000000   3.143682411

ATOMIC_POSITIONS (crystal)
C               -0.0000000000       -0.0000000000        0.2500000000
C                0.0000000000        0.0000000000        0.7500000000
C                0.3333333330        0.6666666660        0.2500000000
C                0.6666666660        0.3333333330        0.7500000000



     Writing config-only to output data dir ./temp/graphite.save/ :
     XML data file
     NEW-OLD atomic charge density approx. for the potential

     Check: negative core charge=   -0.000011

     total cpu time spent up to now is        8.7 secs

     Self-consistent Calculation

     iteration #  1     ecut=    40.00 Ry     beta= 0.70
     Davidson diagonalization with overlap
     ethr =  1.00E-06,  avg # of iterations =  2.0

     total cpu time spent up to now is        9.6 secs

     total energy              =     -72.47902505 Ry
     estimated scf accuracy    <       0.00003497 Ry

     iteration #  2     ecut=    40.00 Ry     beta= 0.70
     Davidson diagonalization with overlap
     ethr =  2.19E-07,  avg # of iterations =  2.3

     total cpu time spent up to now is       10.0 secs

     total energy              =     -72.47903070 Ry
     estimated scf accuracy    <       0.00000036 Ry

     iteration #  3     ecut=    40.00 Ry     beta= 0.70
     Davidson diagonalization with overlap
     ethr =  2.24E-09,  avg # of iterations =  2.2

     total cpu time spent up to now is       10.3 secs

     total energy              =     -72.47903077 Ry
     estimated scf accuracy    <       0.00000005 Ry

     iteration #  4     ecut=    40.00 Ry     beta= 0.70
     Davidson diagonalization with overlap
     ethr =  2.86E-10,  avg # of iterations =  2.0

     total cpu time spent up to now is       10.7 secs

     total energy              =     -72.47903078 Ry
     estimated scf accuracy    <       0.00000002 Ry

     iteration #  5     ecut=    40.00 Ry     beta= 0.70
     Davidson diagonalization with overlap
     ethr =  9.85E-11,  avg # of iterations =  1.0

     total cpu time spent up to now is       11.0 secs

     End of self-consistent calculation

          k = 0.0000 0.0000 0.0000 (  1193 PWs)   bands (ev):

   -14.1107 -14.0203  -2.6504  -1.7560   2.4984   2.4984   2.5028   2.5028
     8.7332  13.0314  13.8681  13.8681

          k = 0.0000 0.0000 0.0795 (  1212 PWs)   bands (ev):

   -14.0977 -14.0339  -2.5328  -1.9028   2.4988   2.4988   2.5016   2.5016
     9.1947  12.0560  13.8701  13.8708

          k = 0.0000 0.0000-0.1590 (  1194 PWs)   bands (ev):

   -14.0659 -14.0659  -2.2319  -2.2319   2.5001   2.5001   2.5001   2.5001
    10.4348  10.4348  13.8749  13.8749

          k = 0.0000 0.0966 0.0000 (  1206 PWs)   bands (ev):

   -13.9451 -13.8558  -2.4491  -1.5616   1.8435   1.8502   2.1520   2.1578
     8.9445  13.2186  13.9204  13.9532

          k = 0.0000 0.0966 0.0795 (  1197 PWs)   bands (ev):

   -13.9322 -13.8692  -2.3323  -1.7071   1.8443   1.8494   2.1533   2.1572
     9.4034  12.2466  13.9330  13.9506

          k = 0.0000 0.0966-0.1590 (  1182 PWs)   bands (ev):

   -13.9009 -13.9009  -2.0337  -2.0337   1.8471   1.8471   2.1554   2.1554
    10.6362  10.6362  13.9432  13.9433

          k = 0.0000 0.1932 0.0000 (  1182 PWs)   bands (ev):

   -13.4499 -13.3638  -1.8498  -0.9840   0.1927   0.2079   1.3449   1.3529
     9.5795  13.7515  13.8500  13.9227

          k = 0.0000 0.1932 0.0795 (  1184 PWs)   bands (ev):

   -13.4375 -13.3767  -1.7356  -1.1255   0.1949   0.2052   1.3457   1.3518
    10.0295  12.8028  13.8846  13.9183

          k = 0.0000 0.1932-0.1590 (  1194 PWs)   bands (ev):

   -13.4073 -13.4073  -1.4440  -1.4440   0.1997   0.1997   1.3488   1.3488
    11.2367  11.2367  13.9016  13.9016

          k = 0.0000 0.2898 0.0000 (  1186 PWs)   bands (ev):

   -12.6310 -12.5501  -1.9243  -1.8999  -0.8698  -0.0444   0.4498   0.4604
    10.6353  12.6900  12.9182  13.5652

          k = 0.0000 0.2898 0.0795 (  1192 PWs)   bands (ev):

   -12.6194 -12.5622  -1.9210  -1.9037  -0.7604  -0.1787   0.4512   0.4589
    11.0602  12.7206  12.8545  13.5180

          k = 0.0000 0.2898-0.1590 (  1174 PWs)   bands (ev):

   -12.5909 -12.5909  -1.9124  -1.9124  -0.4816  -0.4816   0.4556   0.4556
    12.1473  12.1473  12.9187  12.9188

          k = 0.0000 0.3865 0.0000 (  1192 PWs)   bands (ev):

   -11.5000 -11.4261  -4.1497  -4.1146  -0.2943  -0.2824   0.4469   1.2008
    10.2758  10.6488  12.0941  13.2360

          k = 0.0000 0.3865 0.0795 (  1184 PWs)   bands (ev):

   -11.4893 -11.4371  -4.1445  -4.1196  -0.2924  -0.2845   0.5479   1.0795
    10.3149  10.5815  12.5141  13.2450

          k = 0.0000 0.3865-0.1590 (  1182 PWs)   bands (ev):

   -11.4634 -11.4634  -4.1320  -4.1320  -0.2883  -0.2883   0.8037   0.8037
    10.4358  10.4358  13.2098  13.2098

          k = 0.0000 0.4831 0.0000 (  1196 PWs)   bands (ev):

   -10.0850 -10.0201  -6.2746  -6.2300  -0.7733  -0.7621   1.9601   2.5605
     8.0696   8.5187  12.9829  13.0957

          k = 0.0000 0.4831 0.0795 (  1193 PWs)   bands (ev):

   -10.0757 -10.0298  -6.2681  -6.2364  -0.7718  -0.7635   2.0433   2.4673
     8.1207   8.4386  13.0015  13.0822

          k = 0.0000 0.4831-0.1590 (  1188 PWs)   bands (ev):

   -10.0529 -10.0529  -6.2523  -6.2523  -0.7675  -0.7675   2.2503   2.2503
     8.2656   8.2656  13.0436  13.0436

          k = 0.0000-0.5797 0.0000 (  1188 PWs)   bands (ev):

    -8.7600  -8.7287  -7.8172  -7.7927  -0.9378  -0.9265   2.9612   3.2502
     7.0066   7.3736  12.9017  13.0289

          k = 0.0000-0.5797 0.0795 (  1190 PWs)   bands (ev):

    -8.7551  -8.7331  -7.8140  -7.7967  -0.9362  -0.9281   3.0079   3.2132
     7.0360   7.2960  12.9201  13.0100

          k = 0.0000-0.5797-0.1590 (  1204 PWs)   bands (ev):

    -8.7440  -8.7440  -7.8058  -7.8058  -0.9322  -0.9322   3.1151   3.1151
     7.1421   7.1421  12.9645  12.9645

          k = 0.0837 0.1449 0.0000 (  1195 PWs)   bands (ev):

   -13.6147 -13.5275  -2.0487  -1.1755   0.8068   0.8139   1.4611   1.4664
     9.3684  13.5862  14.1931  14.2523

          k = 0.0837 0.1449 0.0795 (  1192 PWs)   bands (ev):

   -13.6021 -13.5406  -1.9336  -1.3183   0.8078   0.8129   1.4620   1.4658
     9.8216  12.6258  14.2203  14.2475

          k = 0.0837 0.1449-0.1590 (  1192 PWs)   bands (ev):

   -13.5715 -13.5715  -1.6396  -1.6396   0.8103   0.8103   1.4637   1.4637
    11.0389  11.0389  14.2361  14.2361

          k = 0.0837 0.2415 0.0000 (  1191 PWs)   bands (ev):

   -12.9577 -12.8747  -1.2581  -0.9165  -0.9003  -0.4155   0.4445   0.4545
    10.2161  13.5983  13.7354  14.3292

          k = 0.0837 0.2415 0.0795 (  1192 PWs)   bands (ev):

   -12.9457 -12.8871  -1.1466  -0.9142  -0.9027  -0.5528   0.4459   0.4528
    10.6559  13.3186  13.6319  13.7894

          k = 0.0837 0.2415-0.1590 (  1192 PWs)   bands (ev):

   -12.9166 -12.9166  -0.9087  -0.9087  -0.8622  -0.8622   0.4494   0.4494
    11.8332  11.8332  13.6903  13.6903

          k = 0.0837 0.3381 0.0000 (  1189 PWs)   bands (ev):

   -11.9827 -11.9058  -3.0115  -2.9831  -0.4542  -0.4409  -0.1043   0.6846
    11.3617  11.4802  11.6345  14.0919

          k = 0.0837 0.3381 0.0795 (  1187 PWs)   bands (ev):

   -11.9716 -11.9173  -3.0073  -2.9872  -0.4523  -0.4429   0.0008   0.5569
    11.3703  11.5804  11.9395  14.0605

          k = 0.0837 0.3381-0.1590 (  1184 PWs)   bands (ev):

   -11.9446 -11.9446  -2.9972  -2.9972  -0.4477  -0.4477   0.2677   0.2677
    11.4707  11.4707  13.0532  13.0532

          k = 0.0837 0.4348 0.0000 (  1189 PWs)   bands (ev):

   -10.7074 -10.6383  -5.1582  -5.1189  -1.0970  -1.0818   1.3391   2.0286
     9.0602   9.4519  13.1306  13.8150

          k = 0.0837 0.4348 0.0795 (  1189 PWs)   bands (ev):

   -10.6974 -10.6486  -5.1525  -5.1248  -1.0947  -1.0840   1.4324   1.9190
     9.1076   9.3856  13.4939  13.8312

          k = 0.0837 0.4348-0.1590 (  1186 PWs)   bands (ev):

   -10.6732 -10.6732  -5.1387  -5.1387  -1.0893  -1.0893   1.6677   1.6677
     9.2371   9.2371  13.8371  13.8371

          k = 0.0837 0.5314 0.0000 (  1191 PWs)   bands (ev):

    -9.1980  -9.1414  -7.1305  -7.0852  -1.4292  -1.4134   2.7826   3.2215
     7.2763   7.6600  13.6363  13.7770

          k = 0.0837 0.5314 0.0795 (  1184 PWs)   bands (ev):

    -9.1898  -9.1497  -7.1239  -7.0918  -1.4268  -1.4156   2.8473   3.1580
     7.3146   7.5867  13.6567  13.7563

          k = 0.0837 0.5314-0.1590 (  1188 PWs)   bands (ev):

    -9.1699  -9.1699  -7.1079  -7.1079  -1.4212  -1.4212   3.0029   3.0029
     7.4334   7.4334  13.7060  13.7060

          k = 0.1673 0.2898 0.0000 (  1185 PWs)   bands (ev):

   -12.1446 -12.0667  -2.2424  -2.2293  -0.9445  -0.9348  -0.2903   0.5097
    11.2743  11.8617  12.0399  15.0755

          k = 0.1673 0.2898 0.0795 (  1190 PWs)   bands (ev):

   -12.1334 -12.0783  -2.2404  -2.2311  -0.9431  -0.9362  -0.1841   0.3799
    11.6936  11.8874  12.0144  14.2420

          k = 0.1673 0.2898-0.1590 (  1190 PWs)   bands (ev):

   -12.1061 -12.1061  -2.2359  -2.2359  -0.9397  -0.9397   0.0863   0.0863
    11.9497  11.9497  12.8164  12.8164

          k = 0.1673 0.3865 0.0000 (  1191 PWs)   bands (ev):

   -11.0244 -10.9534  -3.9912  -3.9637  -2.0154  -1.9971   1.0113   1.7397
     9.8544  10.1035  12.7388  15.7050

          k = 0.1673 0.3865 0.0795 (  1187 PWs)   bands (ev):

   -11.0141 -10.9639  -3.9872  -3.9677  -2.0127  -1.9998   1.1092   1.6228
     9.8886  10.0655  13.1217  15.3029

          k = 0.1673 0.3865-0.1590 (  1194 PWs)   bands (ev):

   -10.9892 -10.9892  -3.9775  -3.9775  -2.0064  -2.0064   1.3565   1.3565
     9.9752   9.9752  14.1210  14.1210

          k = 0.1673 0.4831 0.0000 (  1179 PWs)   bands (ev):

    -9.6293  -9.5673  -5.9324  -5.8922  -2.5941  -2.5710   2.5229   3.1099
     7.8805   8.2064  14.5741  15.5047

          k = 0.1673 0.4831 0.0795 (  1186 PWs)   bands (ev):

    -9.6203  -9.5765  -5.9266  -5.8982  -2.5908  -2.5745   2.6040   3.0188
     7.9213   8.1526  14.8691  15.5197

          k = 0.1673 0.4831-0.1590 (  1182 PWs)   bands (ev):

    -9.5986  -9.5986  -5.9124  -5.9124  -2.5826  -2.5826   2.8064   2.8064
     8.0309   8.0309  15.4597  15.4597

          k = 0.1673 0.5797 0.0000 (  1176 PWs)   bands (ev):

    -8.3382  -8.3085  -7.4021  -7.3803  -2.7797  -2.7553   3.5667   3.8501
     6.8727   7.0719  15.4067  15.6423

          k = 0.1673 0.5797 0.0795 (  1174 PWs)   bands (ev):

    -8.3336  -8.3126  -7.3992  -7.3838  -2.7762  -2.7588   3.6131   3.8146
     6.8841   7.0269  15.4346  15.5992

          k = 0.1673 0.5797-0.1590 (  1176 PWs)   bands (ev):

    -8.3229  -8.3229  -7.3919  -7.3919  -2.7676  -2.7676   3.7190   3.7190
     6.9388   6.9388  15.5075  15.5075

          k = 0.2510 0.4348 0.0000 (  1183 PWs)   bands (ev):

    -9.7806  -9.7173  -5.0109  -4.9913  -3.5316  -3.5164   2.4163   3.0487
     8.2305   8.4654  14.3737  16.3049

          k = 0.2510 0.4348 0.0795 (  1183 PWs)   bands (ev):

    -9.7714  -9.7268  -5.0080  -4.9941  -3.5294  -3.5187   2.5023   2.9490
     8.2649   8.4308  14.6440  15.9676

          k = 0.2510 0.4348-0.1590 (  1192 PWs)   bands (ev):

    -9.7492  -9.7492  -5.0011  -5.0011  -3.5243  -3.5243   2.7188   2.7188
     8.3475   8.3475  15.2891  15.2891

          k = 0.2510 0.5314 0.0000 (  1169 PWs)   bands (ev):

    -8.3301  -8.2793  -6.4648  -6.4306  -4.2473  -4.2210   3.9095   4.3473
     6.7062   6.9276  16.2844  16.3299

          k = 0.2510 0.5314 0.0795 (  1171 PWs)   bands (ev):

    -8.3228  -8.2868  -6.4598  -6.4356  -4.2435  -4.2249   3.9730   4.2833
     6.7336   6.8904  15.9927  16.1082

          k = 0.2510 0.5314-0.1590 (  1180 PWs)   bands (ev):

    -8.3049  -8.3049  -6.4479  -6.4479  -4.2344  -4.2344   4.1279   4.1279
     6.8067   6.8067  15.8879  15.8879

          k = 0.3347 0.5797 0.0000 (  1173 PWs)   bands (ev):

    -7.0915  -7.0654  -7.0654  -7.0407  -5.1792  -5.1792   5.2398   5.4976
     5.4976   5.7781  16.0939  16.0939

          k = 0.3347 0.5797 0.0795 (  1173 PWs)   bands (ev):

    -7.0841  -7.0652  -7.0652  -7.0482  -5.1794  -5.1794   5.3139   5.5004
     5.5004   5.6939  15.8435  15.8435

          k = 0.3347 0.5797-0.1590 (  1182 PWs)   bands (ev):

    -7.0663  -7.0663  -7.0652  -7.0652  -5.1796  -5.1796   5.4985   5.4985
     5.5029   5.5029  15.6583  15.6583

     the Fermi energy is     5.5012 ev

!    total energy              =     -72.47903078 Ry
     total all-electron energy =      -303.595142 Ry
     estimated scf accuracy    <          8.2E-11 Ry
     smearing contrib. (-TS)   =      -0.00051751 Ry
     internal energy E=F+TS    =     -72.47851327 Ry

     The total energy is F=E-TS. E is the sum of the following terms:
     one-electron contribution =     -22.59754000 Ry
     hartree contribution      =      18.76702769 Ry
     xc contribution           =     -18.34709156 Ry
     ewald contribution        =     -26.72316122 Ry
     DFT-D3 Dispersion         =      -0.01555743 Ry
     one-center paw contrib.   =     -23.56219075 Ry

     convergence has been achieved in   5 iterations

     Forces acting on atoms (cartesian axes, Ry/au):

     atom    1 type  1   force =    -0.00000000   -0.00000000    0.00000000
     atom    2 type  1   force =     0.00000000    0.00000000    0.00000000
     atom    3 type  1   force =     0.00000000    0.00000000    0.00000000
     atom    4 type  1   force =     0.00000000   -0.00000000    0.00000000

     Total force =     0.000000     Total SCF correction =     0.000000


     Computing stress (Cartesian axis) and pressure

          total   stress  (Ry/bohr**3)                   (kbar)     P=       -3.44
   0.00003226   0.00000000   0.00000000            4.75        0.00        0.00
   0.00000000   0.00003226   0.00000000            0.00        4.75        0.00
   0.00000000   0.00000000  -0.00013476            0.00        0.00      -19.82

     Energy error            =      3.1E-04 Ry
     Gradient error          =      1.9E-25 Ry/Bohr
     Cell gradient error     =      2.0E+01 kbar

     number of scf cycles    =   3
     number of bfgs steps    =   2

     enthalpy           old  =     -72.4787249392 Ry
     enthalpy           new  =     -72.4790307784 Ry

     CASE: enthalpy          _new < enthalpy          _old

     new trust radius        =       0.0215009382 bohr
ibrav =      4
 celldm(1) =      4.64913766
 celldm(3) =      3.13223566
Input lattice vectors:
     0.99713303     0.00000000     0.00000000
    -0.49856651     0.86354253     0.00000000
    -0.00000000     0.00000000     3.12325563
New lattice vectors in INITIAL alat:
     0.99713303     0.00000000     0.00000000
    -0.49856651     0.86354253     0.00000000
     0.00000000     0.00000000     3.12325563
New lattice vectors in NEW alat (for information only):
     1.00000000     0.00000000     0.00000000
    -0.50000000     0.86602540     0.00000000
     0.00000000     0.00000000     3.13223566
Discrepancy in bohr =     0.000000    0.000000    0.000000
     new conv_thr            =       0.0000000010 Ry

     new unit-cell volume =    272.58520 a.u.^3 (    40.39296 Ang^3 )
     density =      1.97507 g/cm^3

CELL_PARAMETERS (alat=  4.66250493)
   0.997133028   0.000000000   0.000000000
  -0.498566514   0.863542534   0.000000000
   0.000000000   0.000000000   3.123255627

ATOMIC_POSITIONS (crystal)
C               -0.0000000000       -0.0000000000        0.2500000000
C                0.0000000000        0.0000000000        0.7500000000
C                0.3333333330        0.6666666660        0.2500000000
C                0.6666666660        0.3333333330        0.7500000000



     Writing config-only to output data dir ./temp/graphite.save/ :
     XML data file
     NEW-OLD atomic charge density approx. for the potential

     Check: negative core charge=   -0.000011

     total cpu time spent up to now is       12.6 secs

     Self-consistent Calculation

     iteration #  1     ecut=    40.00 Ry     beta= 0.70
     Davidson diagonalization with overlap
     ethr =  1.00E-06,  avg # of iterations =  3.3

     Threshold (ethr) on eigenvalues was too large:
     Diagonalizing with lowered threshold

     Davidson diagonalization with overlap
     ethr =  5.02E-08,  avg # of iterations =  1.4

     total cpu time spent up to now is       13.8 secs

     total energy              =     -72.47925894 Ry
     estimated scf accuracy    <       0.00000864 Ry

     iteration #  2     ecut=    40.00 Ry     beta= 0.70
     Davidson diagonalization with overlap
     ethr =  5.40E-08,  avg # of iterations =  1.4

     total cpu time spent up to now is       14.1 secs

     total energy              =     -72.47925963 Ry
     estimated scf accuracy    <       0.00000058 Ry

     iteration #  3     ecut=    40.00 Ry     beta= 0.70
     Davidson diagonalization with overlap
     ethr =  3.59E-09,  avg # of iterations =  1.1

     total cpu time spent up to now is       14.4 secs

     total energy              =     -72.47925966 Ry
     estimated scf accuracy    <       0.00000002 Ry

     iteration #  4     ecut=    40.00 Ry     beta= 0.70
     Davidson diagonalization with overlap
     ethr =  1.51E-10,  avg # of iterations =  2.5

     total cpu time spent up to now is       14.8 secs

     total energy              =     -72.47925966 Ry
     estimated scf accuracy    <          6.6E-09 Ry

     iteration #  5     ecut=    40.00 Ry     beta= 0.70
     Davidson diagonalization with overlap
     ethr =  4.13E-11,  avg # of iterations =  1.5

     total cpu time spent up to now is       15.2 secs

     End of self-consistent calculation

          k = 0.0000 0.0000 0.0000 (  1193 PWs)   bands (ev):

   -14.0464 -13.9502  -2.6056  -1.6731   2.5362   2.5362   2.5409   2.5409
     8.8055  13.1791  13.8842  13.8842

          k = 0.0000 0.0000 0.0800 (  1212 PWs)   bands (ev):

   -14.0326 -13.9647  -2.4833  -1.8267   2.5366   2.5366   2.5397   2.5397
     9.2774  12.1909  13.8863  13.8870

          k = 0.0000 0.0000-0.1601 (  1194 PWs)   bands (ev):

   -13.9988 -13.9988  -2.1701  -2.1701   2.5380   2.5380   2.5380   2.5380
    10.5426  10.5426  13.8914  13.8914

          k = 0.0000 0.0965 0.0000 (  1206 PWs)   bands (ev):

   -13.8811 -13.7861  -2.4048  -1.4794   1.8820   1.8893   2.1910   2.1973
     9.0160  13.3645  13.9361  13.9697

          k = 0.0000 0.0965 0.0800 (  1197 PWs)   bands (ev):

   -13.8674 -13.8003  -2.2833  -1.6316   1.8829   1.8885   2.1923   2.1965
     9.4852  12.3797  13.9489  13.9669

          k = 0.0000 0.0965-0.1601 (  1182 PWs)   bands (ev):

   -13.8341 -13.8341  -1.9724  -1.9724   1.8859   1.8859   2.1946   2.1946
    10.7427  10.7427  13.9591  13.9592

          k = 0.0000 0.1930 0.0000 (  1182 PWs)   bands (ev):

   -13.3868 -13.2952  -1.8068  -0.9039   0.2334   0.2498   1.3865   1.3952
     9.6486  13.8622  13.8895  13.9368

          k = 0.0000 0.1930 0.0800 (  1184 PWs)   bands (ev):

   -13.3736 -13.3089  -1.6880  -1.0520   0.2358   0.2470   1.3874   1.3940
    10.1085  12.9288  13.8985  13.9324

          k = 0.0000 0.1930-0.1601 (  1194 PWs)   bands (ev):

   -13.3415 -13.3415  -1.3844  -1.3844   0.2411   0.2411   1.3908   1.3908
    11.3394  11.3394  13.9146  13.9146

          k = 0.0000 0.2895 0.0000 (  1186 PWs)   bands (ev):

   -12.5694 -12.4833  -1.8801  -1.8538  -0.8290   0.0320   0.4942   0.5057
    10.7002  12.7010  12.9430  13.5723

          k = 0.0000 0.2895 0.0800 (  1192 PWs)   bands (ev):

   -12.5571 -12.4961  -1.8765  -1.8578  -0.7151  -0.1085   0.4958   0.5041
    11.1339  12.7374  12.8788  13.5386

          k = 0.0000 0.2895-0.1601 (  1174 PWs)   bands (ev):

   -12.5268 -12.5268  -1.8672  -1.8672  -0.4248  -0.4248   0.5004   0.5004
    12.2320  12.2320  12.9441  12.9441

          k = 0.0000 0.3860 0.0000 (  1192 PWs)   bands (ev):

   -11.4406 -11.3619  -4.1015  -4.0638  -0.2477  -0.2348   0.4850   1.2717
    10.2926  10.6834  12.1523  13.2401

          k = 0.0000 0.3860 0.0800 (  1184 PWs)   bands (ev):

   -11.4293 -11.3736  -4.0959  -4.0692  -0.2457  -0.2370   0.5902   1.1449
    10.3338  10.6130  12.5787  13.2509

          k = 0.0000 0.3860-0.1601 (  1182 PWs)   bands (ev):

   -11.4016 -11.4016  -4.0825  -4.0825  -0.2413  -0.2413   0.8568   0.8568
    10.4606  10.4606  13.2269  13.2269

          k = 0.0000 0.4825 0.0000 (  1196 PWs)   bands (ev):

   -10.0288  -9.9596  -6.2219  -6.1743  -0.7253  -0.7130   1.9961   2.6229
     8.0943   8.5625  12.9852  13.1058

          k = 0.0000 0.4825 0.0800 (  1193 PWs)   bands (ev):

   -10.0188  -9.9699  -6.2150  -6.1811  -0.7236  -0.7146   2.0828   2.5256
     8.1471   8.4786  13.0048  13.0909

          k = 0.0000 0.4825-0.1601 (  1188 PWs)   bands (ev):

    -9.9945  -9.9945  -6.1981  -6.1981  -0.7190  -0.7190   2.2989   2.2989
     8.2978   8.2978  13.0493  13.0493

          k = 0.0000-0.5790 0.0000 (  1188 PWs)   bands (ev):

    -8.7099  -8.6765  -7.7562  -7.7300  -0.8893  -0.8770   2.9988   3.3016
     7.0404   7.4200  12.9031  13.0378

          k = 0.0000-0.5790 0.0800 (  1190 PWs)   bands (ev):

    -8.7047  -8.6811  -7.7528  -7.7343  -0.8875  -0.8787   3.0479   3.2632
     7.0697   7.3387  12.9225  13.0178

          k = 0.0000-0.5790-0.1601 (  1204 PWs)   bands (ev):

    -8.6927  -8.6927  -7.7441  -7.7441  -0.8833  -0.8833   3.1607   3.1607
     7.1785   7.1785  12.9696  12.9696

          k = 0.0836 0.1448 0.0000 (  1195 PWs)   bands (ev):

   -13.5513 -13.4585  -2.0053  -1.0947   0.8466   0.8543   1.5026   1.5082
     9.4383  13.7284  14.2086  14.2682

          k = 0.0836 0.1448 0.0800 (  1192 PWs)   bands (ev):

   -13.5379 -13.4724  -1.8856  -1.2442   0.8477   0.8532   1.5035   1.5076
     9.9016  12.7553  14.2362  14.2632

          k = 0.0836 0.1448-0.1601 (  1192 PWs)   bands (ev):

   -13.5054 -13.5054  -1.5794  -1.5794   0.8504   0.8504   1.5054   1.5054
    11.1430  11.1430  14.2514  14.2514

          k = 0.0836 0.2413 0.0000 (  1191 PWs)   bands (ev):

   -12.8955 -12.8072  -1.2164  -0.8743  -0.8568  -0.3376   0.4889   0.4997
    10.2827  13.6069  13.7577  14.3399

          k = 0.0836 0.2413 0.0800 (  1192 PWs)   bands (ev):

   -12.8828 -12.8204  -1.1005  -0.8718  -0.8594  -0.4813   0.4903   0.4978
    10.7321  13.4254  13.6418  13.8162

          k = 0.0836 0.2413-0.1601 (  1192 PWs)   bands (ev):

   -12.8518 -12.8518  -0.8658  -0.8658  -0.8043  -0.8043   0.4941   0.4941
    11.9318  11.9318  13.7020  13.7020

          k = 0.0836 0.3378 0.0000 (  1189 PWs)   bands (ev):

   -11.9223 -11.8404  -2.9657  -2.9351  -0.4075  -0.3932  -0.0651   0.7580
    11.3758  11.5418  11.6625  14.0968

          k = 0.0836 0.3378 0.0800 (  1187 PWs)   bands (ev):

   -11.9106 -11.8526  -2.9611  -2.9395  -0.4055  -0.3953   0.0442   0.6244
    11.3883  11.6072  12.0069  14.0753

          k = 0.0836 0.3378-0.1601 (  1184 PWs)   bands (ev):

   -11.8818 -11.8818  -2.9503  -2.9503  -0.4005  -0.4005   0.3224   0.3224
    11.4921  11.4921  13.1408  13.1408

          k = 0.0836 0.4343 0.0000 (  1189 PWs)   bands (ev):

   -10.6496 -10.5760  -5.1082  -5.0662  -1.0488  -1.0323   1.3755   2.0954
     9.0809   9.4904  13.1835  13.8172

          k = 0.0836 0.4343 0.0800 (  1189 PWs)   bands (ev):

   -10.6390 -10.5870  -5.1020  -5.0724  -1.0463  -1.0347   1.4728   1.9807
     9.1303   9.4209  13.5476  13.8356

          k = 0.0836 0.4343-0.1601 (  1186 PWs)   bands (ev):

   -10.6132 -10.6132  -5.0873  -5.0873  -1.0405  -1.0405   1.7182   1.7182
     9.2655   9.2655  13.8456  13.8456

          k = 0.0836 0.5308 0.0000 (  1191 PWs)   bands (ev):

    -9.1445  -9.0841  -7.0751  -7.0267  -1.3801  -1.3630   2.8185   3.2772
     7.3065   7.7050  13.6367  13.7853

          k = 0.0836 0.5308 0.0800 (  1184 PWs)   bands (ev):

    -9.1357  -9.0930  -7.0681  -7.0339  -1.3776  -1.3654   2.8862   3.2110
     7.3456   7.6283  13.6582  13.7633

          k = 0.0836 0.5308-0.1601 (  1188 PWs)   bands (ev):

    -9.1145  -9.1145  -7.0511  -7.0511  -1.3715  -1.3715   3.0490   3.0490
     7.4683   7.4683  13.7102  13.7102

          k = 0.1671 0.2895 0.0000 (  1185 PWs)   bands (ev):

   -12.0839 -12.0009  -2.1990  -2.1848  -0.8956  -0.8851  -0.2508   0.5839
    11.3368  11.8751  12.0627  15.1958

          k = 0.1671 0.2895 0.0800 (  1190 PWs)   bands (ev):

   -12.0720 -12.0134  -2.1968  -2.1868  -0.8941  -0.8867  -0.1402   0.4481
    11.7648  11.9022  12.0361  14.3529

          k = 0.1671 0.2895-0.1601 (  1190 PWs)   bands (ev):

   -12.0429 -12.0429  -2.1919  -2.1919  -0.8904  -0.8904   0.1416   0.1416
    11.9678  11.9678  12.9084  12.9084

          k = 0.1671 0.3860 0.0000 (  1191 PWs)   bands (ev):

   -10.9659 -10.8902  -3.9447  -3.9152  -1.9645  -1.9449   1.0482   1.8084
     9.8735  10.1349  12.7953  15.7061

          k = 0.1671 0.3860 0.0800 (  1187 PWs)   bands (ev):

   -10.9550 -10.9015  -3.9404  -3.9195  -1.9616  -1.9478   1.1501   1.6862
     9.9094  10.0950  13.1856  15.3833

          k = 0.1671 0.3860-0.1601 (  1194 PWs)   bands (ev):

   -10.9284 -10.9284  -3.9300  -3.9300  -1.9548  -1.9548   1.4080   1.4080
    10.0002  10.0002  14.2004  14.2004

          k = 0.1671 0.4825 0.0000 (  1179 PWs)   bands (ev):

    -9.5740  -9.5079  -5.8812  -5.8383  -2.5427  -2.5179   2.5574   3.1706
     7.9060   8.2463  14.6217  15.5023

          k = 0.1671 0.4825 0.0800 (  1186 PWs)   bands (ev):

    -9.5644  -9.5177  -5.8751  -5.8447  -2.5392  -2.5217   2.6420   3.0753
     7.9484   8.1900  14.9199  15.5191

          k = 0.1671 0.4825-0.1601 (  1182 PWs)   bands (ev):

    -9.5412  -9.5412  -5.8599  -5.8599  -2.5304  -2.5304   2.8534   2.8534
     8.0627   8.0627  15.4845  15.4845

          k = 0.1671 0.5790 0.0000 (  1176 PWs)   bands (ev):

    -8.2884  -8.2567  -7.3431  -7.3199  -2.7280  -2.7019   3.6026   3.8996
     6.9083   7.1132  15.4032  15.6482

          k = 0.1671 0.5790 0.0800 (  1174 PWs)   bands (ev):

    -8.2835  -8.2611  -7.3401  -7.3237  -2.7243  -2.7057   3.6515   3.8627
     6.9191   7.0661  15.4322  15.6034

          k = 0.1671 0.5790-0.1601 (  1176 PWs)   bands (ev):

    -8.2721  -8.2721  -7.3323  -7.3323  -2.7151  -2.7151   3.7629   3.7629
     6.9746   6.9746  15.5079  15.5079

          k = 0.2507 0.4343 0.0000 (  1183 PWs)   bands (ev):

    -9.7248  -9.6573  -4.9644  -4.9433  -3.4750  -3.4588   2.4505   3.1111
     8.2547   8.5014  14.4226  16.3696

          k = 0.2507 0.4343 0.0800 (  1183 PWs)   bands (ev):

    -9.7150  -9.6674  -4.9613  -4.9463  -3.4727  -3.4613   2.5402   3.0067
     8.2908   8.4650  14.6961  16.0263

          k = 0.2507 0.4343-0.1601 (  1192 PWs)   bands (ev):

    -9.6913  -9.6913  -4.9538  -4.9538  -3.4672  -3.4672   2.7661   2.7661
     8.3776   8.3776  15.3450  15.3450

          k = 0.2507 0.5308 0.0000 (  1169 PWs)   bands (ev):

    -8.2782  -8.2240  -6.4140  -6.3775  -4.1901  -4.1621   3.9422   4.3999
     6.7368   6.9688  16.3213  16.3766

          k = 0.2507 0.5308 0.0800 (  1171 PWs)   bands (ev):

    -8.2704  -8.2320  -6.4086  -6.3828  -4.1861  -4.1663   4.0087   4.3331
     6.7653   6.9296  16.0210  16.1424

          k = 0.2507 0.5308-0.1601 (  1180 PWs)   bands (ev):

    -8.2513  -8.2513  -6.3959  -6.3959  -4.1764  -4.1764   4.1707   4.1707
     6.8417   6.8417  15.9132  15.9132

          k = 0.3343 0.5790 0.0000 (  1173 PWs)   bands (ev):

    -7.0438  -7.0158  -7.0158  -6.9894  -5.1142  -5.1142   5.2659   5.5359
     5.5359   5.8308  16.1354  16.1354

          k = 0.3343 0.5790 0.0800 (  1173 PWs)   bands (ev):

    -7.0359  -7.0157  -7.0157  -6.9975  -5.1143  -5.1143   5.3435   5.5390
     5.5390   5.7422  15.8726  15.8726

          k = 0.3343 0.5790-0.1601 (  1182 PWs)   bands (ev):

    -7.0168  -7.0168  -7.0156  -7.0156  -5.1146  -5.1146   5.5371   5.5371
     5.5418   5.5418  15.6803  15.6803

     the Fermi energy is     5.5398 ev

!    total energy              =     -72.47925967 Ry
     total all-electron energy =      -303.595371 Ry
     estimated scf accuracy    <          1.4E-10 Ry
     smearing contrib. (-TS)   =      -0.00051010 Ry
     internal energy E=F+TS    =     -72.47874957 Ry

     The total energy is F=E-TS. E is the sum of the following terms:
     one-electron contribution =     -21.92621773 Ry
     hartree contribution      =      18.45547174 Ry
     xc contribution           =     -18.33663543 Ry
     ewald contribution        =     -27.09394201 Ry
     DFT-D3 Dispersion         =      -0.01568304 Ry
     one-center paw contrib.   =     -23.56174311 Ry

     convergence has been achieved in   5 iterations

     Forces acting on atoms (cartesian axes, Ry/au):

     atom    1 type  1   force =    -0.00000000   -0.00000000   -0.00000000
     atom    2 type  1   force =     0.00000000    0.00000000    0.00000000
     atom    3 type  1   force =     0.00000000    0.00000000   -0.00000000
     atom    4 type  1   force =     0.00000000    0.00000000    0.00000000

     Total force =     0.000000     Total SCF correction =     0.000000


     Computing stress (Cartesian axis) and pressure

          total   stress  (Ry/bohr**3)                   (kbar)     P=      -11.87
  -0.00005538   0.00000000   0.00000000           -8.15        0.00        0.00
   0.00000000  -0.00005538   0.00000000            0.00       -8.15        0.00
   0.00000000   0.00000000  -0.00013124            0.00        0.00      -19.31

     Energy error            =      2.3E-04 Ry
     Gradient error          =      2.1E-25 Ry/Bohr
     Cell gradient error     =      1.9E+01 kbar

     number of scf cycles    =   4
     number of bfgs steps    =   3

     enthalpy           old  =     -72.4790307784 Ry
     enthalpy           new  =     -72.4792596660 Ry

     CASE: enthalpy          _new < enthalpy          _old

     new trust radius        =       0.0237556148 bohr
ibrav =      4
 celldm(1) =      4.65183441
 celldm(3) =      3.10789884
Input lattice vectors:
     0.99771142     0.00000000     0.00000000
    -0.49885571     0.86404343    -0.00000000
     0.00000000    -0.00000000     3.10078617
New lattice vectors in INITIAL alat:
     0.99771142     0.00000000     0.00000000
    -0.49885571     0.86404343     0.00000000
     0.00000000     0.00000000     3.10078617
New lattice vectors in NEW alat (for information only):
     1.00000000     0.00000000     0.00000000
    -0.50000000     0.86602540     0.00000000
     0.00000000     0.00000000     3.10789884
Discrepancy in bohr =     0.000000    0.000000    0.000000
     new conv_thr            =       0.0000000010 Ry

     new unit-cell volume =    270.93820 a.u.^3 (    40.14890 Ang^3 )
     density =      1.98708 g/cm^3

CELL_PARAMETERS (alat=  4.66250493)
   0.997711419   0.000000000   0.000000000
  -0.498855710   0.864043435   0.000000000
   0.000000000   0.000000000   3.100786165

ATOMIC_POSITIONS (crystal)
C               -0.0000000000       -0.0000000000        0.2500000000
C                0.0000000000        0.0000000000        0.7500000000
C                0.3333333330        0.6666666660        0.2500000000
C                0.6666666660        0.3333333330        0.7500000000



     Writing config-only to output data dir ./temp/graphite.save/ :
     XML data file
     NEW-OLD atomic charge density approx. for the potential

     Check: negative core charge=   -0.000012

     total cpu time spent up to now is       16.8 secs

     Self-consistent Calculation

     iteration #  1     ecut=    40.00 Ry     beta= 0.70
     Davidson diagonalization with overlap
     ethr =  1.00E-06,  avg # of iterations =  3.3

     Threshold (ethr) on eigenvalues was too large:
     Diagonalizing with lowered threshold

     Davidson diagonalization with overlap
     ethr =  3.98E-08,  avg # of iterations =  1.3

     total cpu time spent up to now is       18.0 secs

     total energy              =     -72.47948904 Ry
     estimated scf accuracy    <       0.00000643 Ry

     iteration #  2     ecut=    40.00 Ry     beta= 0.70
     Davidson diagonalization with overlap
     ethr =  4.02E-08,  avg # of iterations =  1.0

     total cpu time spent up to now is       18.3 secs

     total energy              =     -72.47948915 Ry
     estimated scf accuracy    <       0.00000057 Ry

     iteration #  3     ecut=    40.00 Ry     beta= 0.70
     Davidson diagonalization with overlap
     ethr =  3.53E-09,  avg # of iterations =  1.1

     total cpu time spent up to now is       18.6 secs

     total energy              =     -72.47948917 Ry
     estimated scf accuracy    <       0.00000002 Ry

     iteration #  4     ecut=    40.00 Ry     beta= 0.70
     Davidson diagonalization with overlap
     ethr =  9.52E-11,  avg # of iterations =  2.3

     total cpu time spent up to now is       19.1 secs

     total energy              =     -72.47948918 Ry
     estimated scf accuracy    <          2.7E-09 Ry

     iteration #  5     ecut=    40.00 Ry     beta= 0.70
     Davidson diagonalization with overlap
     ethr =  1.66E-11,  avg # of iterations =  1.5

     total cpu time spent up to now is       19.5 secs

     End of self-consistent calculation

          k = 0.0000 0.0000 0.0000 (  1193 PWs)   bands (ev):

   -13.9771 -13.8743  -2.5554  -1.5803   2.5939   2.5939   2.5990   2.5990
     8.8943  13.3533  13.9308  13.9308

          k = 0.0000 0.0000 0.0806 (  1212 PWs)   bands (ev):

   -13.9624 -13.8898  -2.4279  -1.7415   2.5944   2.5944   2.5978   2.5978
     9.3780  12.3503  13.9331  13.9339

          k = 0.0000 0.0000-0.1612 (  1194 PWs)   bands (ev):

   -13.9263 -13.9263  -2.1010  -2.1010   2.5959   2.5959   2.5959   2.5959
    10.6712  10.6712  13.9386  13.9386

          k = 0.0000 0.0964 0.0000 (  1206 PWs)   bands (ev):

   -13.8119 -13.7103  -2.3547  -1.3870   1.9400   1.9481   2.2493   2.2561
     9.1042  13.5371  13.9825  14.0174

          k = 0.0000 0.0964 0.0806 (  1197 PWs)   bands (ev):

   -13.7973 -13.7256  -2.2281  -1.5467   1.9411   1.9471   2.2506   2.2553
     9.5851  12.5374  13.9958  14.0144

          k = 0.0000 0.0964-0.1612 (  1182 PWs)   bands (ev):

   -13.7617 -13.7617  -1.9036  -1.9036   1.9442   1.9442   2.2531   2.2531
    10.8703  10.8703  14.0061  14.0061

          k = 0.0000 0.1929 0.0000 (  1182 PWs)   bands (ev):

   -13.3181 -13.2200  -1.7573  -0.8129   0.2924   0.3102   1.4460   1.4556
     9.7350  13.9066  13.9837  14.0541

          k = 0.0000 0.1929 0.0806 (  1184 PWs)   bands (ev):

   -13.3040 -13.2347  -1.6334  -0.9683   0.2950   0.3072   1.4471   1.4542
    10.2062  13.0791  13.9452  13.9795

          k = 0.0000 0.1929-0.1612 (  1194 PWs)   bands (ev):

   -13.2697 -13.2697  -1.3164  -1.3164   0.3008   0.3008   1.4507   1.4507
    11.4637  11.4637  13.9602  13.9602

          k = 0.0000 0.2893 0.0000 (  1186 PWs)   bands (ev):

   -12.5014 -12.4091  -1.8197  -1.7912  -0.7802   0.1207   0.5551   0.5676
    10.7835  12.7416  12.9991  13.6133

          k = 0.0000 0.2893 0.0806 (  1192 PWs)   bands (ev):

   -12.4881 -12.4229  -1.8157  -1.7955  -0.6614  -0.0268   0.5568   0.5658
    11.2271  12.7829  12.9336  13.5886

          k = 0.0000 0.2893-0.1612 (  1174 PWs)   bands (ev):

   -12.4557 -12.4557  -1.8057  -1.8057  -0.3581  -0.3581   0.5618   0.5618
    12.3376  12.3376  13.0015  13.0015

          k = 0.0000 0.3858 0.0000 (  1192 PWs)   bands (ev):

   -11.3735 -11.2892  -4.0392  -3.9987  -0.1857  -0.1718   0.5331   1.3567
    10.3343  10.7453  12.2304  13.2793

          k = 0.0000 0.3858 0.0806 (  1184 PWs)   bands (ev):

   -11.3614 -11.3018  -4.0332  -4.0044  -0.1835  -0.1741   0.6429   1.2235
    10.3778  10.6714  12.6644  13.2916

          k = 0.0000 0.3858-0.1612 (  1182 PWs)   bands (ev):

   -11.3318 -11.3318  -4.0188  -4.0188  -0.1787  -0.1787   0.9216   0.9216
    10.5112  10.5112  13.2760  13.2760

          k = 0.0000 0.4822 0.0000 (  1196 PWs)   bands (ev):

    -9.9631  -9.8889  -6.1576  -6.1064  -0.6626  -0.6492   2.0445   2.7013
     8.1399   8.6299  13.0228  13.1520

          k = 0.0000 0.4822 0.0806 (  1193 PWs)   bands (ev):

    -9.9524  -9.9000  -6.1502  -6.1138  -0.6608  -0.6509   2.1352   2.5992
     8.1946   8.5417  13.0435  13.1357

          k = 0.0000 0.4822-0.1612 (  1188 PWs)   bands (ev):

    -9.9264  -9.9264  -6.1320  -6.1320  -0.6558  -0.6558   2.3615   2.3615
     8.3519   8.3519  13.0910  13.0910

          k = 0.0000-0.5787 0.0000 (  1188 PWs)   bands (ev):

    -8.6466  -8.6107  -7.6871  -7.6591  -0.8264  -0.8129   3.0511   3.3694
     7.0935   7.4877  12.9401  13.0836

          k = 0.0000-0.5787 0.0806 (  1190 PWs)   bands (ev):

    -8.6410  -8.6157  -7.6835  -7.6637  -0.8244  -0.8148   3.1030   3.3294
     7.1227   7.4021  12.9608  13.0622

          k = 0.0000-0.5787-0.1612 (  1204 PWs)   bands (ev):

    -8.6281  -8.6281  -7.6742  -7.6742  -0.8198  -0.8198   3.2220   3.2220
     7.2345   7.2345  13.0109  13.0109

          k = 0.0835 0.1447 0.0000 (  1195 PWs)   bands (ev):

   -13.4824 -13.3832  -1.9556  -1.0032   0.9052   0.9136   1.5621   1.5683
     9.5253  13.8976  14.2550  14.3157

          k = 0.0835 0.1447 0.0806 (  1192 PWs)   bands (ev):

   -13.4681 -13.3981  -1.8308  -1.1601   0.9065   0.9124   1.5631   1.5676
    10.0000  12.9095  14.2835  14.3104

          k = 0.0835 0.1447-0.1612 (  1192 PWs)   bands (ev):

   -13.4334 -13.4334  -1.5111  -1.5111   0.9094   0.9094   1.5651   1.5651
    11.2686  11.2686  14.2982  14.2982

          k = 0.0835 0.2411 0.0000 (  1191 PWs)   bands (ev):

   -12.8271 -12.7326  -1.1674  -0.8147  -0.7957  -0.2479   0.5498   0.5615
    10.3673  13.6472  13.8117  14.3832

          k = 0.0835 0.2411 0.0806 (  1192 PWs)   bands (ev):

   -12.8136 -12.7468  -1.0464  -0.8120  -0.7984  -0.3988   0.5514   0.5595
    10.8275  13.5500  13.6850  13.8816

          k = 0.0835 0.2411-0.1612 (  1192 PWs)   bands (ev):

   -12.7805 -12.7805  -0.8054  -0.8054  -0.7370  -0.7370   0.5555   0.5555
    12.0525  12.0525  13.7464  13.7464

          k = 0.0835 0.3376 0.0000 (  1189 PWs)   bands (ev):

   -11.8548 -11.7671  -2.9044  -2.8715  -0.3456  -0.3300  -0.0168   0.8447
    11.4172  11.6226  11.7197  14.1363

          k = 0.0835 0.3376 0.0806 (  1187 PWs)   bands (ev):

   -11.8422 -11.7802  -2.8996  -2.8763  -0.3434  -0.3323   0.0973   0.7044
    11.4330  11.6625  12.0957  14.1219

          k = 0.0835 0.3376-0.1612 (  1184 PWs)   bands (ev):

   -11.8114 -11.8114  -2.8879  -2.8879  -0.3379  -0.3379   0.3880   0.3880
    11.5414  11.5414  13.2518  13.2518

          k = 0.0835 0.4340 0.0000 (  1189 PWs)   bands (ev):

   -10.5833 -10.5044  -5.0451  -4.9999  -0.9860  -0.9682   1.4234   2.1773
     9.1245   9.5543  13.2575  13.8552

          k = 0.0835 0.4340 0.0806 (  1189 PWs)   bands (ev):

   -10.5719 -10.5162  -5.0385  -5.0066  -0.9834  -0.9708   1.5250   2.0569
     9.1761   9.4811  13.6222  13.8758

          k = 0.0835 0.4340-0.1612 (  1186 PWs)   bands (ev):

   -10.5442 -10.5442  -5.0226  -5.0226  -0.9770  -0.9770   1.7817   1.7817
     9.3179   9.3179  13.8889  13.8889

          k = 0.0835 0.5305 0.0000 (  1191 PWs)   bands (ev):

    -9.0800  -9.0152  -7.0094  -6.9575  -1.3170  -1.2984   2.8685   3.3494
     7.3565   7.7721  13.6731  13.8308

          k = 0.0835 0.5305 0.0806 (  1184 PWs)   bands (ev):

    -9.0706  -9.0248  -7.0019  -6.9652  -1.3142  -1.3010   2.9395   3.2802
     7.3964   7.6913  13.6958  13.8074

          k = 0.0835 0.5305-0.1612 (  1188 PWs)   bands (ev):

    -9.0479  -9.0479  -6.9836  -6.9836  -1.3076  -1.3076   3.1105   3.1105
     7.5237   7.5237  13.7510  13.7510

          k = 0.1670 0.2893 0.0000 (  1185 PWs)   bands (ev):

   -12.0162 -11.9274  -2.1386  -2.1233  -0.8324  -0.8211  -0.2024   0.6711
    11.4184  11.9172  12.1156  15.3439

          k = 0.1670 0.2893 0.0806 (  1190 PWs)   bands (ev):

   -12.0035 -11.9407  -2.1363  -2.1254  -0.8308  -0.8227  -0.0870   0.5285
    11.8560  11.9459  12.0877  14.4893

          k = 0.1670 0.2893-0.1612 (  1190 PWs)   bands (ev):

   -11.9724 -11.9724  -2.1310  -2.1310  -0.8268  -0.8268   0.2074   0.2074
    12.0152  12.0152  13.0234  13.0234

          k = 0.1670 0.3858 0.0000 (  1191 PWs)   bands (ev):

   -10.8992 -10.8181  -3.8831  -3.8513  -1.9005  -1.8794   1.0959   1.8919
     9.9176  10.1930  12.8723  15.7430

          k = 0.1670 0.3858 0.0806 (  1187 PWs)   bands (ev):

   -10.8875 -10.8302  -3.8784  -3.8560  -1.8974  -1.8824   1.2023   1.7635
     9.9554  10.1510  13.2710  15.4862

[...]
        k(   37) = (   0.1672573   0.2896981   0.0000000), wk =   0.0208333
        k(   38) = (   0.1672573   0.2896981   0.0931037), wk =   0.0416667
        k(   39) = (   0.1672573   0.2896981  -0.1862074), wk =   0.0208333
        k(   40) = (   0.1672573   0.3862642   0.0000000), wk =   0.0416667
        k(   41) = (   0.1672573   0.3862642   0.0931037), wk =   0.0833333
        k(   42) = (   0.1672573   0.3862642  -0.1862074), wk =   0.0416667
        k(   43) = (   0.1672573   0.4828302   0.0000000), wk =   0.0416667
        k(   44) = (   0.1672573   0.4828302   0.0931037), wk =   0.0833333
        k(   45) = (   0.1672573   0.4828302  -0.1862074), wk =   0.0416667
        k(   46) = (   0.1672573   0.5793963   0.0000000), wk =   0.0208333
        k(   47) = (   0.1672573   0.5793963   0.0931037), wk =   0.0416667
        k(   48) = (   0.1672573   0.5793963  -0.1862074), wk =   0.0208333
        k(   49) = (   0.2508859   0.4345472   0.0000000), wk =   0.0208333
        k(   50) = (   0.2508859   0.4345472   0.0931037), wk =   0.0416667
        k(   51) = (   0.2508859   0.4345472  -0.1862074), wk =   0.0208333
        k(   52) = (   0.2508859   0.5311132   0.0000000), wk =   0.0416667
        k(   53) = (   0.2508859   0.5311132   0.0931037), wk =   0.0833333
        k(   54) = (   0.2508859   0.5311132  -0.1862074), wk =   0.0416667
        k(   55) = (   0.3345146   0.5793963   0.0000000), wk =   0.0069444
        k(   56) = (   0.3345146   0.5793963   0.0931037), wk =   0.0138889
        k(   57) = (   0.3345146   0.5793963  -0.1862074), wk =   0.0069444

     Dense  grid:    22577 G-vectors     FFT dimensions: (  27,  27,  72)

     Smooth grid:     8031 G-vectors     FFT dimensions: (  20,  20,  54)

     Estimated max dynamical RAM per process >      11.48 MB

     Estimated total dynamical RAM >      45.93 MB

     Check: negative core charge=   -0.000012

     Initial potential from superposition of free atoms

     starting charge      15.9998, renormalised to      16.0000
     Starting wfcs are   16 randomized atomic wfcs
     Checking if some PAW data can be deallocated... 

     total cpu time spent up to now is       65.1 secs

     Self-consistent Calculation

     iteration #  1     ecut=    40.00 Ry     beta= 0.70
     Davidson diagonalization with overlap
     c_bands:  1 eigenvalues not converged
     c_bands:  1 eigenvalues not converged
     c_bands:  1 eigenvalues not converged
     c_bands:  1 eigenvalues not converged
     c_bands:  2 eigenvalues not converged
     c_bands:  3 eigenvalues not converged
     c_bands:  1 eigenvalues not converged
     c_bands:  1 eigenvalues not converged
     c_bands:  2 eigenvalues not converged
     c_bands:  2 eigenvalues not converged
     c_bands:  1 eigenvalues not converged
     c_bands:  2 eigenvalues not converged
     c_bands:  2 eigenvalues not converged
     c_bands:  2 eigenvalues not converged
     c_bands:  1 eigenvalues not converged
     c_bands:  1 eigenvalues not converged
     c_bands:  2 eigenvalues not converged
     c_bands:  2 eigenvalues not converged
     c_bands:  1 eigenvalues not converged
     ethr =  1.00E-06,  avg # of iterations = 14.6

     total cpu time spent up to now is       66.9 secs

     total energy              =     -72.42104004 Ry
     estimated scf accuracy    <       0.39178440 Ry

     iteration #  2     ecut=    40.00 Ry     beta= 0.70
     Davidson diagonalization with overlap
     ethr =  2.45E-03,  avg # of iterations =  2.2

     total cpu time spent up to now is       67.3 secs

     total energy              =     -72.48127229 Ry
     estimated scf accuracy    <       0.00407754 Ry

     iteration #  3     ecut=    40.00 Ry     beta= 0.70
     Davidson diagonalization with overlap
     ethr =  2.55E-05,  avg # of iterations =  4.3

     total cpu time spent up to now is       67.7 secs

     total energy              =     -72.48169375 Ry
     estimated scf accuracy    <       0.00032159 Ry

     iteration #  4     ecut=    40.00 Ry     beta= 0.70
     Davidson diagonalization with overlap
     c_bands:  1 eigenvalues not converged
     ethr =  2.01E-06,  avg # of iterations =  3.2

     total cpu time spent up to now is       68.1 secs

     total energy              =     -72.48173241 Ry
     estimated scf accuracy    <       0.00000535 Ry

     iteration #  5     ecut=    40.00 Ry     beta= 0.70
     Davidson diagonalization with overlap
     ethr =  3.35E-08,  avg # of iterations =  3.3

     total cpu time spent up to now is       68.5 secs

     total energy              =     -72.48173515 Ry
     estimated scf accuracy    <       0.00000029 Ry

     iteration #  6     ecut=    40.00 Ry     beta= 0.70
     Davidson diagonalization with overlap
     ethr =  1.80E-09,  avg # of iterations =  2.2

     total cpu time spent up to now is       68.8 secs

     total energy              =     -72.48173524 Ry
     estimated scf accuracy    <       0.00000003 Ry

     iteration #  7     ecut=    40.00 Ry     beta= 0.70
     Davidson diagonalization with overlap
     ethr =  1.79E-10,  avg # of iterations =  2.1

     total cpu time spent up to now is       69.2 secs

     total energy              =     -72.48173525 Ry
     estimated scf accuracy    <          3.3E-09 Ry

     iteration #  8     ecut=    40.00 Ry     beta= 0.70
     Davidson diagonalization with overlap
     ethr =  2.08E-11,  avg # of iterations =  1.9

     total cpu time spent up to now is       69.5 secs

     End of self-consistent calculation

          k = 0.0000 0.0000 0.0000 (   997 PWs)   bands (ev):

   -12.5721 -12.2321  -1.5634   0.5848   4.1482   4.1482   4.1678   4.1678
    11.2534  15.4928  15.4929  15.5505

          k = 0.0000 0.0000 0.0931 (  1003 PWs)   bands (ev):

   -12.5254 -12.2852  -1.2966   0.2038   4.1506   4.1506   4.1644   4.1644
    12.0394  15.5006  15.5006  15.5413

          k = 0.0000 0.0000-0.1862 (  1022 PWs)   bands (ev):

   -12.4085 -12.4085  -0.6000  -0.6000   4.1567   4.1567   4.1567   4.1567
    14.0191  14.0191  15.5205  15.5205

          k = 0.0000 0.0966 0.0000 (  1012 PWs)   bands (ev):

   -12.4054 -12.0689  -1.3599   0.7743   3.4846   3.5226   3.7967   3.8290
    11.4534  15.5390  15.6323  16.1970

          k = 0.0000 0.0966 0.0931 (  1003 PWs)   bands (ev):

   -12.3591 -12.1214  -1.0947   0.3964   3.4906   3.5175   3.8013   3.8240
    12.2331  15.5395  15.6204  16.2053

          k = 0.0000 0.0966-0.1862 (  1002 PWs)   bands (ev):

   -12.2433 -12.2433  -0.4022  -0.4022   3.5039   3.5039   3.8122   3.8122
    14.1905  14.1905  15.5992  15.5992

          k = 0.0000 0.1931 0.0000 (  1008 PWs)   bands (ev):

   -11.9070 -11.5807  -0.7537   1.3368   1.8203   1.8939   2.9842   3.0297
    12.0557  15.4365  15.6379  16.3703

          k = 0.0000 0.1931 0.0931 (   999 PWs)   bands (ev):

   -11.8620 -11.6315  -0.4931   0.9678   1.8312   1.8833   2.9909   3.0232
    12.8137  15.4403  15.6057  16.4364

          k = 0.0000 0.1931-0.1862 (  1004 PWs)   bands (ev):

   -11.7497 -11.7497   0.1858   0.1858   1.8570   1.8570   3.0071   3.0071
    14.6808  14.6808  15.5872  15.5872

          k = 0.0000 0.2897 0.0000 (  1006 PWs)   bands (ev):

   -11.0828 -10.7732  -0.3111  -0.1974   0.2405   2.0874   2.1415   2.2473
    13.0547  14.0990  14.8096  15.1089

          k = 0.0000 0.2897 0.0931 (  1000 PWs)   bands (ev):

   -11.0400 -10.8212  -0.2948  -0.2147   0.4922   1.8959   2.0955   2.1338
    13.7034  14.2597  14.6666  15.1516

          k = 0.0000 0.2897-0.1862 (  1000 PWs)   bands (ev):

   -10.9332 -10.9332  -0.2552  -0.2552   1.1466   1.1466   2.1143   2.1143
    14.3544  14.3544  15.1548  15.1548

          k = 0.0000 0.3863 0.0000 (   996 PWs)   bands (ev):

    -9.9447  -9.6575  -2.5490  -2.3965   1.3427   1.4013   1.5848   3.4366
    11.6155  12.6177  14.3842  14.7719

          k = 0.0000 0.3863 0.0931 (  1002 PWs)   bands (ev):

    -9.9049  -9.7019  -2.5274  -2.4195   1.3508   1.3928   1.8203   3.1186
    11.7219  12.4369  14.7475  14.9171

          k = 0.0000 0.3863-0.1862 (   994 PWs)   bands (ev):

    -9.8056  -9.8056  -2.4739  -2.4739   1.3716   1.3716   2.4301   2.4301
    12.0469  12.0469  14.9011  14.9011

          k = 0.0000 0.4828 0.0000 (  1010 PWs)   bands (ev):

    -8.5201  -8.2634  -4.6848  -4.4987   0.8617   0.9243   3.1615   4.6534
     9.4406  10.5392  14.4664  14.8880

          k = 0.0000 0.4828 0.0931 (  1006 PWs)   bands (ev):

    -8.4842  -8.3029  -4.6587  -4.5269   0.8710   0.9150   3.3647   4.4202
     9.5353  10.3188  14.5282  14.8269

          k = 0.0000 0.4828-0.1862 (  1000 PWs)   bands (ev):

    -8.3952  -8.3952  -4.5937  -4.5937   0.8932   0.8932   3.8769   3.8769
     9.8687   9.8687  14.6769  14.6769

          k = 0.0000-0.5794 0.0000 (  1008 PWs)   bands (ev):

    -7.1588  -7.0323  -6.1801  -6.0847   0.6968   0.7607   4.2925   5.0386
     8.6049   9.3438  14.3770  14.8240

          k = 0.0000-0.5794 0.0931 (  1006 PWs)   bands (ev):

    -7.1369  -7.0465  -6.1732  -6.1048   0.7062   0.7515   4.4341   4.9767
     8.5872   9.1242  14.4394  14.7562

          k = 0.0000-0.5794-0.1862 (   996 PWs)   bands (ev):

    -7.0878  -7.0878  -6.1455  -6.1455   0.7285   0.7285   4.7448   4.7448
     8.7413   8.7413  14.5944  14.5944

          k = 0.0836 0.1448 0.0000 (  1007 PWs)   bands (ev):

   -12.0729 -11.7431  -0.9549   1.1505   2.4485   2.4850   3.1098   3.1361
    11.8559  15.8094  15.9376  17.1070

          k = 0.0836 0.1448 0.0931 (  1007 PWs)   bands (ev):

   -12.0274 -11.7945  -0.6929   0.7785   2.4539   2.4799   3.1128   3.1316
    12.6225  15.7945  15.9202  16.9000

          k = 0.0836 0.1448-0.1862 (  1006 PWs)   bands (ev):

   -11.9139 -11.9139  -0.0092  -0.0092   2.4669   2.4669   3.1217   3.1217
    14.5366  14.5366  15.8992  15.8992

          k = 0.0836 0.2414 0.0000 (  1009 PWs)   bands (ev):

   -11.4116 -11.0954  -0.1539   0.7093   0.7881   1.8888   2.0833   2.1344
    12.6617  15.0555  15.5577  15.9021

          k = 0.0836 0.2414 0.0931 (  1002 PWs)   bands (ev):

   -11.3679 -11.1444   0.1012   0.7207   0.7768   1.5300   2.0905   2.1267
    13.3952  15.1175  15.4531  15.9314

          k = 0.0836 0.2414-0.1862 (  1002 PWs)   bands (ev):

   -11.2589 -11.2589   0.7388   0.7388   0.7764   0.7764   2.1083   2.1083
    15.0990  15.0990  15.3755  15.3755

          k = 0.0836 0.3380 0.0000 (  1006 PWs)   bands (ev):

   -10.4304 -10.1337  -1.4020  -1.2760   1.0196   1.1785   1.2462   2.9488
    12.7460  13.5206  13.8576  15.6169

          k = 0.0836 0.3380 0.0931 (   998 PWs)   bands (ev):

   -10.3893 -10.1795  -1.3839  -1.2947   1.1881   1.2361   1.2633   2.6140
    12.8294  13.3888  14.5612  15.6618

          k = 0.0836 0.3380-0.1862 (  1002 PWs)   bands (ev):

   -10.2868 -10.2868  -1.3396  -1.3396   1.2119   1.2119   1.8948   1.8948
    13.0915  13.0915  15.6876  15.6876

          k = 0.0836 0.4345 0.0000 (  1003 PWs)   bands (ev):

    -9.1469  -8.8760  -3.5623  -3.3957   0.5335   0.6087   2.5030   4.2101
    10.4071  11.4207  15.2299  15.4418

          k = 0.0836 0.4345 0.0931 (  1003 PWs)   bands (ev):

    -9.1091  -8.9178  -3.5386  -3.4208   0.5444   0.5976   2.7245   3.9247
    10.5172  11.2394  15.3395  15.5891

          k = 0.0836 0.4345-0.1862 (   998 PWs)   bands (ev):

    -9.0154  -9.0154  -3.4804  -3.4804   0.5710   0.5710   3.2936   3.2936
    10.8457  10.8457  15.4868  15.4868

          k = 0.0836 0.5311 0.0000 (   999 PWs)   bands (ev):

    -7.6241  -7.3971  -5.5388  -5.3527   0.2005   0.2790   4.0516   5.1490
     8.7747   9.6322  15.1096  15.5740

          k = 0.0836 0.5311 0.0931 (  1001 PWs)   bands (ev):

    -7.5919  -7.4314  -5.5132  -5.3816   0.2117   0.2673   4.2227   5.0103
     8.8063   9.4288  15.1730  15.5016

          k = 0.0836 0.5311-0.1862 (   996 PWs)   bands (ev):

    -7.5126  -7.5126  -5.4489  -5.4489   0.2394   0.2394   4.6309   4.6309
     9.0367   9.0367  15.3320  15.3320

          k = 0.1673 0.2897 0.0000 (   999 PWs)   bands (ev):

   -10.5933 -10.2934  -0.6107  -0.5485   0.6995   0.7450   0.8293   2.7829
    13.2995  13.6693  13.8334  17.0518

          k = 0.1673 0.2897 0.0931 (   996 PWs)   bands (ev):

   -10.5518 -10.3398  -0.6010  -0.5571   0.7050   0.7373   1.0751   2.4425
    13.3752  13.7447  14.3685  17.0485

          k = 0.1673 0.2897-0.1862 (  1002 PWs)   bands (ev):

   -10.4483 -10.4483  -0.5788  -0.5788   0.7200   0.7200   1.7136   1.7136
    13.5596  13.5596  16.0461  16.0461

          k = 0.1673 0.3863 0.0000 (  1006 PWs)   bands (ev):

    -9.4659  -9.1886  -2.3798  -2.2597  -0.3863  -0.3029   2.1588   3.9576
    11.2521  11.9473  15.0532  17.1959

          k = 0.1673 0.3863 0.0931 (  1004 PWs)   bands (ev):

    -9.4273  -9.2313  -2.3622  -2.2774  -0.3751  -0.3157   2.3887   3.6504
    11.3473  11.8405  15.6543  17.2324

          k = 0.1673 0.3863-0.1862 (   992 PWs)   bands (ev):

    -9.3313  -9.3313  -2.3197  -2.3197  -0.3460  -0.3460   2.9823   2.9823
    11.5900  11.5900  16.9568  16.9568

          k = 0.1673 0.4828 0.0000 (   997 PWs)   bands (ev):

    -8.0611  -7.8144  -4.3371  -4.1679  -0.9736  -0.8691   3.7299   5.1991
     9.2852  10.1120  16.7354  16.9866

          k = 0.1673 0.4828 0.0931 (   999 PWs)   bands (ev):

    -8.0265  -7.8521  -4.3133  -4.1934  -0.9587  -0.8851   3.9294   4.9678
     9.3738   9.9663  16.9930  17.1018

          k = 0.1673 0.4828-0.1862 (  1002 PWs)   bands (ev):

    -7.9409  -7.9409  -4.2543  -4.2543  -0.9224  -0.9224   4.4319   4.4319
     9.6437   9.6437  17.1379  17.1379

          k = 0.1673 0.5794 0.0000 (   992 PWs)   bands (ev):

    -6.7345  -6.6129  -5.7628  -5.6775  -1.1608  -1.0519   4.8962   5.6263
     8.5571   8.8911  16.8523  17.4625

          k = 0.1673 0.5794 0.0931 (   990 PWs)   bands (ev):

    -6.7136  -6.6268  -5.7568  -5.6956  -1.1451  -1.0683   5.0380   5.5710
     8.5053   8.7658  16.9112  17.3298

          k = 0.1673 0.5794-0.1862 (   994 PWs)   bands (ev):

    -6.6665  -6.6665  -5.7321  -5.7321  -1.1074  -1.1074   5.3473   5.3473
     8.5485   8.5485  17.0739  17.0739

          k = 0.2509 0.4345 0.0000 (  1001 PWs)   bands (ev):

    -8.2137  -7.9625  -3.3888  -3.3025  -1.8913  -1.8267   3.6047   5.1896
     9.6327  10.2981  16.5784  18.9471

          k = 0.2509 0.4345 0.0931 (   998 PWs)   bands (ev):

    -8.1785  -8.0011  -3.3753  -3.3142  -1.8838  -1.8381   3.8124   4.9277
     9.7314  10.1992  16.9022  18.2325

          k = 0.2509 0.4345-0.1862 (   998 PWs)   bands (ev):

    -8.0915  -8.0915  -3.3440  -3.3440  -1.8630  -1.8630   4.3436   4.3436
     9.9660   9.9660  17.5129  17.5129

          k = 0.2509 0.5311 0.0000 (   983 PWs)   bands (ev):

    -6.7496  -6.5423  -4.8600  -4.7168  -2.6268  -2.5141   5.1779   6.2819
     8.1885   8.7863  18.2861  18.8640

          k = 0.2509 0.5311 0.0931 (   988 PWs)   bands (ev):

    -6.7201  -6.5735  -4.8399  -4.7385  -2.6117  -2.5320   5.3465   6.1394
     8.2431   8.6672  17.6215  17.8858

          k = 0.2509 0.5311-0.1862 (  1000 PWs)   bands (ev):

    -6.6477  -6.6477  -4.7899  -4.7899  -2.5733  -2.5733   5.7532   5.7532
     8.4264   8.4264  17.4150  17.4150

          k = 0.3345 0.5794 0.0000 (   975 PWs)   bands (ev):

    -5.5184  -5.4081  -5.4081  -5.3024  -3.5100  -3.5100   6.4265   7.0951
     7.0951   7.9109  18.0974  18.0974

          k = 0.3345 0.5794 0.0931 (   996 PWs)   bands (ev):

    -5.4881  -5.4067  -5.4067  -5.3355  -3.5136  -3.5136   6.6186   7.1155
     7.1155   7.6624  17.4547  17.4547

          k = 0.3345 0.5794-0.1862 (   984 PWs)   bands (ev):

    -5.4129  -5.4129  -5.4050  -5.4050  -3.5166  -3.5166   7.1136   7.1136
     7.1367   7.1367  17.0674  17.0674

     the Fermi energy is     7.1155 ev

!    total energy              =     -72.48173525 Ry
     total all-electron energy =      -303.597847 Ry
     estimated scf accuracy    <          1.5E-10 Ry
     smearing contrib. (-TS)   =      -0.00039515 Ry
     internal energy E=F+TS    =     -72.48134010 Ry

     The total energy is F=E-TS. E is the sum of the following terms:
     one-electron contribution =      -9.18130440 Ry
     hartree contribution      =      13.03963418 Ry
     xc contribution           =     -18.35627432 Ry
     ewald contribution        =     -34.40196230 Ry
     DFT-D3 Dispersion         =      -0.01918200 Ry
     one-center paw contrib.   =     -23.56225126 Ry

     convergence has been achieved in   8 iterations

     Forces acting on atoms (cartesian axes, Ry/au):

     atom    1 type  1   force =     0.00000000   -0.00000000    0.00000000
     atom    2 type  1   force =     0.00000000    0.00000000    0.00000000
     atom    3 type  1   force =     0.00000000   -0.00000000    0.00000000
     atom    4 type  1   force =     0.00000000    0.00000000    0.00000000

     Total force =     0.000000     Total SCF correction =     0.000000


     Computing stress (Cartesian axis) and pressure

          total   stress  (Ry/bohr**3)                   (kbar)     P=       -4.52
  -0.00002213   0.00000000   0.00000000           -3.26        0.00        0.00
   0.00000000  -0.00002213  -0.00000000            0.00       -3.26       -0.00
   0.00000000   0.00000000  -0.00004797            0.00        0.00       -7.06


     Writing all to output data dir ./temp/graphite.save/ :
     XML data file, charge density, pseudopotentials, collected wavefunctions

     init_run     :      0.74s CPU      0.78s WALL (       2 calls)
     electrons    :     40.42s CPU     43.49s WALL (      15 calls)
     update_pot   :      0.38s CPU      0.38s WALL (      13 calls)
     forces       :     11.66s CPU     11.69s WALL (      15 calls)
     force_dftd3  :     10.72s CPU     10.73s WALL (      15 calls)
     stress       :     14.34s CPU     14.35s WALL (      15 calls)
     stres_dftd3  :     10.72s CPU     10.73s WALL (      15 calls)

     Called by init_run:
     wfcinit      :      0.27s CPU      0.31s WALL (       2 calls)
     potinit      :      0.19s CPU      0.19s WALL (       2 calls)
     hinit0       :      0.22s CPU      0.22s WALL (       2 calls)

     Called by electrons:
     c_bands      :     26.24s CPU     28.73s WALL (      85 calls)
     sum_band     :      3.87s CPU      4.40s WALL (      85 calls)
     v_of_rho     :      0.59s CPU      0.60s WALL (      94 calls)
     newd         :      0.56s CPU      0.57s WALL (      94 calls)
     PAW_pot      :      2.25s CPU      2.26s WALL (     107 calls)
     mix_rho      :      0.04s CPU      0.04s WALL (      85 calls)
     energy_dftd3 :      7.53s CPU      7.53s WALL (      15 calls)

     Called by c_bands:
     init_us_2    :      0.52s CPU      0.57s WALL (   12255 calls)
     cegterg      :     25.40s CPU     27.82s WALL (    4845 calls)

     Called by *egterg:
     cdiaghg      :      1.81s CPU      1.98s WALL (   15878 calls)
     h_psi        :     16.08s CPU     17.64s WALL (   17075 calls)
     s_psi        :      1.57s CPU      1.72s WALL (   17075 calls)
     g_psi        :      0.08s CPU      0.09s WALL (   12116 calls)

     Called by h_psi:
     h_psi:calbec :      2.04s CPU      2.25s WALL (   17075 calls)
     vloc_psi     :     12.35s CPU     13.53s WALL (   17075 calls)
     add_vuspsi   :      1.56s CPU      1.72s WALL (   17075 calls)

     General routines
     calbec       :      3.84s CPU      4.17s WALL (   26936 calls)
     fft          :      0.53s CPU      0.54s WALL (    1586 calls)
     ffts         :      0.13s CPU      0.13s WALL (     179 calls)
     fftw         :     12.15s CPU     13.41s WALL (  368306 calls)
     interpolate  :      0.16s CPU      0.16s WALL (      94 calls)

     Parallel routines

     PWSCF        :   1m 8.26s CPU   1m11.44s WALL


   This run was terminated on:  22:26:12  25Dec2024            

=------------------------------------------------------------------------------=
   JOB DONE.
=------------------------------------------------------------------------------=
