 INFO
nunit      1    1    1
unit   cell
celltype   primcell
shape   parapipedal
 END_INFO
 DIM-GROUP
           3           1
 PRIMVEC
    7.3268766120   -0.0002738650    0.0066979570
    3.6632035650    6.2199374620    0.0477855430
    1.8344186800    1.0575573650    2.9923906310
 CONVVEC
    7.3268766120   -0.0002738650    0.0066979570
    3.6632035650    6.2199374620    0.0477855430
    1.8344186800    1.0575573650    2.9923906310
 PRIMCOORD
           8           1
 25      5.4980762620     3.1100450820     2.2705532090     0.0001789200     0.0003041300    -0.0001912300
 25      7.3296751970     6.2200078850     2.2944494040     0.0001804900     0.0003061400    -0.0001929600
 25      9.1615099840     3.1099075110     2.2739075160     0.0001816500     0.0003046800    -0.0001931700
 25     10.9931144490     6.2198759630     2.2977982330     0.0001802600     0.0003033800    -0.0001917700
 16      9.1603133670     1.0727909810     2.9932595920    -0.0001801200    -0.0003055200     0.0001924800
 16     10.9919146940     4.1827553010     3.0171538790    -0.0001802200    -0.0003037600     0.0001919400
 16      5.4968730310     1.0729285880     2.9899094420    -0.0001806400    -0.0003051200     0.0001926700
 16      7.3284750070     4.1828912960     3.0138038340    -0.0001803300    -0.0003039100     0.0001920500
 CONVCOORD
           8           1
 25      5.4980762620     3.1100450820     2.2705532090
 25      7.3296751970     6.2200078850     2.2944494040
 25      9.1615099840     3.1099075110     2.2739075160
 25     10.9931144490     6.2198759630     2.2977982330
 16      9.1603133670     1.0727909810     2.9932595920
 16     10.9919146940     4.1827553010     3.0171538790
 16      5.4968730310     1.0729285880     2.9899094420
 16      7.3284750070     4.1828912960     3.0138038340
 RECIP-PRIMVEC
    0.1365314877   -0.0799837423   -0.0554301012

    0.0000581300    0.1611769810   -0.0569980859

   -0.0003065308   -0.0023948083    0.3352152431

 RECIP-CONVVEC
    0.1365314877   -0.0799837423   -0.0554301012

    0.0000581300    0.1611769810   -0.0569980859

   -0.0003065308   -0.0023948083    0.3352152431

 WIGNER-SEITZ-PRIMCELL
           4
  0.4024234E-02 -0.4181771E+01 -0.7633863E+00   0.2259991E+00 -0.8991475E+00 -0.3747775E+00
 -0.1303798E-02 -0.4181748E+01 -0.7666548E+00   0.2259991E+00 -0.8991475E+00 -0.3747775E+00
  0.1825230E+01 -0.3095998E+01 -0.2270092E+01   0.2259991E+00 -0.8991475E+00 -0.3747775E+00
  0.1830558E+01 -0.3096021E+01 -0.2266823E+01   0.2259991E+00 -0.8991475E+00 -0.3747775E+00
           6
  0.1825230E+01 -0.3095998E+01 -0.2270092E+01   0.4996799E+00 -0.2889573E+00 -0.8165927E+00
  0.1826700E+01  0.9801744E+00 -0.3711576E+01   0.4996799E+00 -0.2889573E+00 -0.8165927E+00
  0.1827481E+01  0.9806322E+00 -0.3711260E+01   0.4996799E+00 -0.2889573E+00 -0.8165927E+00
  0.1832809E+01  0.9806091E+00 -0.3707991E+01   0.4996799E+00 -0.2889573E+00 -0.8165927E+00
  0.1831339E+01 -0.3095563E+01 -0.2266508E+01   0.4996799E+00 -0.2889573E+00 -0.8165927E+00
  0.1830558E+01 -0.3096021E+01 -0.2266823E+01   0.4996799E+00 -0.2889573E+00 -0.8165927E+00
           6
 -0.3661119E+01 -0.2037732E+01  0.7191850E+00  -0.5004174E+00 -0.2884947E+00 -0.8163046E+00
 -0.3659649E+01  0.2038440E+01 -0.7222987E+00  -0.5004174E+00 -0.2884947E+00 -0.8163046E+00
 -0.1833115E+01  0.3124191E+01 -0.2225736E+01  -0.5004174E+00 -0.2884947E+00 -0.8163046E+00
  0.1826700E+01  0.9801744E+00 -0.3711576E+01  -0.5004174E+00 -0.2884947E+00 -0.8163046E+00
  0.1825230E+01 -0.3095998E+01 -0.2270092E+01  -0.5004174E+00 -0.2884947E+00 -0.8163046E+00
 -0.1303798E-02 -0.4181748E+01 -0.7666548E+00  -0.5004174E+00 -0.2884947E+00 -0.8163046E+00
           6
  0.4024234E-02 -0.4181771E+01 -0.7633863E+00   0.5074981E+00 -0.8616341E+00 -0.5691521E-02
  0.1830558E+01 -0.3096021E+01 -0.2266823E+01   0.5074981E+00 -0.8616341E+00 -0.5691521E-02
  0.1831339E+01 -0.3095563E+01 -0.2266508E+01   0.5074981E+00 -0.8616341E+00 -0.5691521E-02
  0.3659649E+01 -0.2038440E+01  0.7222987E+00   0.5074981E+00 -0.8616341E+00 -0.5691521E-02
  0.1833115E+01 -0.3124191E+01  0.2225736E+01   0.5074981E+00 -0.8616341E+00 -0.5691521E-02
  0.1832334E+01 -0.3124648E+01  0.2225420E+01   0.5074981E+00 -0.8616341E+00 -0.5691521E-02
           6
 -0.1827481E+01 -0.9806322E+00  0.3711260E+01  -0.2941046E+00 -0.8302123E+00  0.4735504E+00
 -0.1832809E+01 -0.9806091E+00  0.3707991E+01  -0.2941046E+00 -0.8302123E+00  0.4735504E+00
 -0.3661119E+01 -0.2037732E+01  0.7191850E+00  -0.2941046E+00 -0.8302123E+00  0.4735504E+00
 -0.1303798E-02 -0.4181748E+01 -0.7666548E+00  -0.2941046E+00 -0.8302123E+00  0.4735504E+00
  0.4024234E-02 -0.4181771E+01 -0.7633863E+00  -0.2941046E+00 -0.8302123E+00  0.4735504E+00
  0.1832334E+01 -0.3124648E+01  0.2225420E+01  -0.2941046E+00 -0.8302123E+00  0.4735504E+00
           4
  0.1827481E+01  0.9806322E+00 -0.3711260E+01  -0.7805352E-03  0.5687035E+00 -0.8225422E+00
  0.1826700E+01  0.9801744E+00 -0.3711576E+01  -0.7805352E-03  0.5687035E+00 -0.8225422E+00
 -0.1833115E+01  0.3124191E+01 -0.2225736E+01  -0.7805352E-03  0.5687035E+00 -0.8225422E+00
 -0.1832334E+01  0.3124648E+01 -0.2225420E+01  -0.7805352E-03  0.5687035E+00 -0.8225422E+00
           6
  0.3661119E+01  0.2037732E+01 -0.7191850E+00   0.2941046E+00  0.8302123E+00 -0.4735504E+00
  0.1832809E+01  0.9806091E+00 -0.3707991E+01   0.2941046E+00  0.8302123E+00 -0.4735504E+00
  0.1827481E+01  0.9806322E+00 -0.3711260E+01   0.2941046E+00  0.8302123E+00 -0.4735504E+00
 -0.1832334E+01  0.3124648E+01 -0.2225420E+01   0.2941046E+00  0.8302123E+00 -0.4735504E+00
 -0.4024234E-02  0.4181771E+01  0.7633863E+00   0.2941046E+00  0.8302123E+00 -0.4735504E+00
  0.1303798E-02  0.4181748E+01  0.7666548E+00   0.2941046E+00  0.8302123E+00 -0.4735504E+00
           4
  0.3659649E+01 -0.2038440E+01  0.7222987E+00   0.8662659E+00 -0.1668403E+00 -0.4709010E+00
  0.1831339E+01 -0.3095563E+01 -0.2266508E+01   0.8662659E+00 -0.1668403E+00 -0.4709010E+00
  0.1832809E+01  0.9806091E+00 -0.3707991E+01   0.8662659E+00 -0.1668403E+00 -0.4709010E+00
  0.3661119E+01  0.2037732E+01 -0.7191850E+00   0.8662659E+00 -0.1668403E+00 -0.4709010E+00
           6
 -0.1831339E+01  0.3095563E+01  0.2266508E+01  -0.5074981E+00  0.8616341E+00  0.5691521E-02
 -0.1830558E+01  0.3096021E+01  0.2266823E+01  -0.5074981E+00  0.8616341E+00  0.5691521E-02
 -0.4024234E-02  0.4181771E+01  0.7633863E+00  -0.5074981E+00  0.8616341E+00  0.5691521E-02
 -0.1832334E+01  0.3124648E+01 -0.2225420E+01  -0.5074981E+00  0.8616341E+00  0.5691521E-02
 -0.1833115E+01  0.3124191E+01 -0.2225736E+01  -0.5074981E+00  0.8616341E+00  0.5691521E-02
 -0.3659649E+01  0.2038440E+01 -0.7222987E+00  -0.5074981E+00  0.8616341E+00  0.5691521E-02
           4
 -0.1831339E+01  0.3095563E+01  0.2266508E+01  -0.8662659E+00  0.1668403E+00  0.4709010E+00
 -0.3659649E+01  0.2038440E+01 -0.7222987E+00  -0.8662659E+00  0.1668403E+00  0.4709010E+00
 -0.3661119E+01 -0.2037732E+01  0.7191850E+00  -0.8662659E+00  0.1668403E+00  0.4709010E+00
 -0.1832809E+01 -0.9806091E+00  0.3707991E+01  -0.8662659E+00  0.1668403E+00  0.4709010E+00
           4
 -0.1826700E+01 -0.9801744E+00  0.3711576E+01   0.7805352E-03 -0.5687035E+00  0.8225422E+00
 -0.1827481E+01 -0.9806322E+00  0.3711260E+01   0.7805352E-03 -0.5687035E+00  0.8225422E+00
  0.1832334E+01 -0.3124648E+01  0.2225420E+01   0.7805352E-03 -0.5687035E+00  0.8225422E+00
  0.1833115E+01 -0.3124191E+01  0.2225736E+01   0.7805352E-03 -0.5687035E+00  0.8225422E+00
           6
  0.1833115E+01 -0.3124191E+01  0.2225736E+01   0.5004174E+00  0.2884947E+00  0.8163046E+00
  0.3659649E+01 -0.2038440E+01  0.7222987E+00   0.5004174E+00  0.2884947E+00  0.8163046E+00
  0.3661119E+01  0.2037732E+01 -0.7191850E+00   0.5004174E+00  0.2884947E+00  0.8163046E+00
  0.1303798E-02  0.4181748E+01  0.7666548E+00   0.5004174E+00  0.2884947E+00  0.8163046E+00
 -0.1825230E+01  0.3095998E+01  0.2270092E+01   0.5004174E+00  0.2884947E+00  0.8163046E+00
 -0.1826700E+01 -0.9801744E+00  0.3711576E+01   0.5004174E+00  0.2884947E+00  0.8163046E+00
           6
 -0.1827481E+01 -0.9806322E+00  0.3711260E+01  -0.4996799E+00  0.2889573E+00  0.8165927E+00
 -0.1826700E+01 -0.9801744E+00  0.3711576E+01  -0.4996799E+00  0.2889573E+00  0.8165927E+00
 -0.1825230E+01  0.3095998E+01  0.2270092E+01  -0.4996799E+00  0.2889573E+00  0.8165927E+00
 -0.1830558E+01  0.3096021E+01  0.2266823E+01  -0.4996799E+00  0.2889573E+00  0.8165927E+00
 -0.1831339E+01  0.3095563E+01  0.2266508E+01  -0.4996799E+00  0.2889573E+00  0.8165927E+00
 -0.1832809E+01 -0.9806091E+00  0.3707991E+01  -0.4996799E+00  0.2889573E+00  0.8165927E+00
           4
  0.1303798E-02  0.4181748E+01  0.7666548E+00  -0.2259991E+00  0.8991475E+00  0.3747775E+00
 -0.4024234E-02  0.4181771E+01  0.7633863E+00  -0.2259991E+00  0.8991475E+00  0.3747775E+00
 -0.1830558E+01  0.3096021E+01  0.2266823E+01  -0.2259991E+00  0.8991475E+00  0.3747775E+00
 -0.1825230E+01  0.3095998E+01  0.2270092E+01  -0.2259991E+00  0.8991475E+00  0.3747775E+00
 WIGNER-SEITZ-PRIMCELL_END
 WIGNER-SEITZ-CONVCELL
           4
  0.4024234E-02 -0.4181771E+01 -0.7633863E+00   0.2259991E+00 -0.8991475E+00 -0.3747775E+00
 -0.1303798E-02 -0.4181748E+01 -0.7666548E+00   0.2259991E+00 -0.8991475E+00 -0.3747775E+00
  0.1825230E+01 -0.3095998E+01 -0.2270092E+01   0.2259991E+00 -0.8991475E+00 -0.3747775E+00
  0.1830558E+01 -0.3096021E+01 -0.2266823E+01   0.2259991E+00 -0.8991475E+00 -0.3747775E+00
           6
  0.1825230E+01 -0.3095998E+01 -0.2270092E+01   0.4996799E+00 -0.2889573E+00 -0.8165927E+00
  0.1826700E+01  0.9801744E+00 -0.3711576E+01   0.4996799E+00 -0.2889573E+00 -0.8165927E+00
  0.1827481E+01  0.9806322E+00 -0.3711260E+01   0.4996799E+00 -0.2889573E+00 -0.8165927E+00
  0.1832809E+01  0.9806091E+00 -0.3707991E+01   0.4996799E+00 -0.2889573E+00 -0.8165927E+00
  0.1831339E+01 -0.3095563E+01 -0.2266508E+01   0.4996799E+00 -0.2889573E+00 -0.8165927E+00
  0.1830558E+01 -0.3096021E+01 -0.2266823E+01   0.4996799E+00 -0.2889573E+00 -0.8165927E+00
           6
 -0.3661119E+01 -0.2037732E+01  0.7191850E+00  -0.5004174E+00 -0.2884947E+00 -0.8163046E+00
 -0.3659649E+01  0.2038440E+01 -0.7222987E+00  -0.5004174E+00 -0.2884947E+00 -0.8163046E+00
 -0.1833115E+01  0.3124191E+01 -0.2225736E+01  -0.5004174E+00 -0.2884947E+00 -0.8163046E+00
  0.1826700E+01  0.9801744E+00 -0.3711576E+01  -0.5004174E+00 -0.2884947E+00 -0.8163046E+00
  0.1825230E+01 -0.3095998E+01 -0.2270092E+01  -0.5004174E+00 -0.2884947E+00 -0.8163046E+00
 -0.1303798E-02 -0.4181748E+01 -0.7666548E+00  -0.5004174E+00 -0.2884947E+00 -0.8163046E+00
           6
  0.4024234E-02 -0.4181771E+01 -0.7633863E+00   0.5074981E+00 -0.8616341E+00 -0.5691521E-02
  0.1830558E+01 -0.3096021E+01 -0.2266823E+01   0.5074981E+00 -0.8616341E+00 -0.5691521E-02
  0.1831339E+01 -0.3095563E+01 -0.2266508E+01   0.5074981E+00 -0.8616341E+00 -0.5691521E-02
  0.3659649E+01 -0.2038440E+01  0.7222987E+00   0.5074981E+00 -0.8616341E+00 -0.5691521E-02
  0.1833115E+01 -0.3124191E+01  0.2225736E+01   0.5074981E+00 -0.8616341E+00 -0.5691521E-02
  0.1832334E+01 -0.3124648E+01  0.2225420E+01   0.5074981E+00 -0.8616341E+00 -0.5691521E-02
           6
 -0.1827481E+01 -0.9806322E+00  0.3711260E+01  -0.2941046E+00 -0.8302123E+00  0.4735504E+00
 -0.1832809E+01 -0.9806091E+00  0.3707991E+01  -0.2941046E+00 -0.8302123E+00  0.4735504E+00
 -0.3661119E+01 -0.2037732E+01  0.7191850E+00  -0.2941046E+00 -0.8302123E+00  0.4735504E+00
 -0.1303798E-02 -0.4181748E+01 -0.7666548E+00  -0.2941046E+00 -0.8302123E+00  0.4735504E+00
  0.4024234E-02 -0.4181771E+01 -0.7633863E+00  -0.2941046E+00 -0.8302123E+00  0.4735504E+00
  0.1832334E+01 -0.3124648E+01  0.2225420E+01  -0.2941046E+00 -0.8302123E+00  0.4735504E+00
           4
  0.1827481E+01  0.9806322E+00 -0.3711260E+01  -0.7805352E-03  0.5687035E+00 -0.8225422E+00
  0.1826700E+01  0.9801744E+00 -0.3711576E+01  -0.7805352E-03  0.5687035E+00 -0.8225422E+00
 -0.1833115E+01  0.3124191E+01 -0.2225736E+01  -0.7805352E-03  0.5687035E+00 -0.8225422E+00
 -0.1832334E+01  0.3124648E+01 -0.2225420E+01  -0.7805352E-03  0.5687035E+00 -0.8225422E+00
           6
  0.3661119E+01  0.2037732E+01 -0.7191850E+00   0.2941046E+00  0.8302123E+00 -0.4735504E+00
  0.1832809E+01  0.9806091E+00 -0.3707991E+01   0.2941046E+00  0.8302123E+00 -0.4735504E+00
  0.1827481E+01  0.9806322E+00 -0.3711260E+01   0.2941046E+00  0.8302123E+00 -0.4735504E+00
 -0.1832334E+01  0.3124648E+01 -0.2225420E+01   0.2941046E+00  0.8302123E+00 -0.4735504E+00
 -0.4024234E-02  0.4181771E+01  0.7633863E+00   0.2941046E+00  0.8302123E+00 -0.4735504E+00
  0.1303798E-02  0.4181748E+01  0.7666548E+00   0.2941046E+00  0.8302123E+00 -0.4735504E+00
           4
  0.3659649E+01 -0.2038440E+01  0.7222987E+00   0.8662659E+00 -0.1668403E+00 -0.4709010E+00
  0.1831339E+01 -0.3095563E+01 -0.2266508E+01   0.8662659E+00 -0.1668403E+00 -0.4709010E+00
  0.1832809E+01  0.9806091E+00 -0.3707991E+01   0.8662659E+00 -0.1668403E+00 -0.4709010E+00
  0.3661119E+01  0.2037732E+01 -0.7191850E+00   0.8662659E+00 -0.1668403E+00 -0.4709010E+00
           6
 -0.1831339E+01  0.3095563E+01  0.2266508E+01  -0.5074981E+00  0.8616341E+00  0.5691521E-02
 -0.1830558E+01  0.3096021E+01  0.2266823E+01  -0.5074981E+00  0.8616341E+00  0.5691521E-02
 -0.4024234E-02  0.4181771E+01  0.7633863E+00  -0.5074981E+00  0.8616341E+00  0.5691521E-02
 -0.1832334E+01  0.3124648E+01 -0.2225420E+01  -0.5074981E+00  0.8616341E+00  0.5691521E-02
 -0.1833115E+01  0.3124191E+01 -0.2225736E+01  -0.5074981E+00  0.8616341E+00  0.5691521E-02
 -0.3659649E+01  0.2038440E+01 -0.7222987E+00  -0.5074981E+00  0.8616341E+00  0.5691521E-02
           4
 -0.1831339E+01  0.3095563E+01  0.2266508E+01  -0.8662659E+00  0.1668403E+00  0.4709010E+00
 -0.3659649E+01  0.2038440E+01 -0.7222987E+00  -0.8662659E+00  0.1668403E+00  0.4709010E+00
 -0.3661119E+01 -0.2037732E+01  0.7191850E+00  -0.8662659E+00  0.1668403E+00  0.4709010E+00
 -0.1832809E+01 -0.9806091E+00  0.3707991E+01  -0.8662659E+00  0.1668403E+00  0.4709010E+00
           4
 -0.1826700E+01 -0.9801744E+00  0.3711576E+01   0.7805352E-03 -0.5687035E+00  0.8225422E+00
 -0.1827481E+01 -0.9806322E+00  0.3711260E+01   0.7805352E-03 -0.5687035E+00  0.8225422E+00
  0.1832334E+01 -0.3124648E+01  0.2225420E+01   0.7805352E-03 -0.5687035E+00  0.8225422E+00
  0.1833115E+01 -0.3124191E+01  0.2225736E+01   0.7805352E-03 -0.5687035E+00  0.8225422E+00
           6
  0.1833115E+01 -0.3124191E+01  0.2225736E+01   0.5004174E+00  0.2884947E+00  0.8163046E+00
  0.3659649E+01 -0.2038440E+01  0.7222987E+00   0.5004174E+00  0.2884947E+00  0.8163046E+00
  0.3661119E+01  0.2037732E+01 -0.7191850E+00   0.5004174E+00  0.2884947E+00  0.8163046E+00
  0.1303798E-02  0.4181748E+01  0.7666548E+00   0.5004174E+00  0.2884947E+00  0.8163046E+00
 -0.1825230E+01  0.3095998E+01  0.2270092E+01   0.5004174E+00  0.2884947E+00  0.8163046E+00
 -0.1826700E+01 -0.9801744E+00  0.3711576E+01   0.5004174E+00  0.2884947E+00  0.8163046E+00
           6
 -0.1827481E+01 -0.9806322E+00  0.3711260E+01  -0.4996799E+00  0.2889573E+00  0.8165927E+00
 -0.1826700E+01 -0.9801744E+00  0.3711576E+01  -0.4996799E+00  0.2889573E+00  0.8165927E+00
 -0.1825230E+01  0.3095998E+01  0.2270092E+01  -0.4996799E+00  0.2889573E+00  0.8165927E+00
 -0.1830558E+01  0.3096021E+01  0.2266823E+01  -0.4996799E+00  0.2889573E+00  0.8165927E+00
 -0.1831339E+01  0.3095563E+01  0.2266508E+01  -0.4996799E+00  0.2889573E+00  0.8165927E+00
 -0.1832809E+01 -0.9806091E+00  0.3707991E+01  -0.4996799E+00  0.2889573E+00  0.8165927E+00
           4
  0.1303798E-02  0.4181748E+01  0.7666548E+00  -0.2259991E+00  0.8991475E+00  0.3747775E+00
 -0.4024234E-02  0.4181771E+01  0.7633863E+00  -0.2259991E+00  0.8991475E+00  0.3747775E+00
 -0.1830558E+01  0.3096021E+01  0.2266823E+01  -0.2259991E+00  0.8991475E+00  0.3747775E+00
 -0.1825230E+01  0.3095998E+01  0.2270092E+01  -0.2259991E+00  0.8991475E+00  0.3747775E+00
 WIGNER-SEITZ-CONVCELL_END
 BRILLOUIN-ZONE-PRIMCELL
           4
 -0.1542948E+00 -0.4974681E-01 -0.5487588E-01  -0.8145057E+00 -0.4775638E+00 -0.3294134E+00
 -0.1541676E+00 -0.4982041E-01 -0.5508386E-01  -0.8145057E+00 -0.4775638E+00 -0.3294134E+00
 -0.1185779E+00 -0.1102449E+00 -0.5548299E-01  -0.8145057E+00 -0.4775638E+00 -0.3294134E+00
 -0.1187051E+00 -0.1101713E+00 -0.5527501E-01  -0.8145057E+00 -0.4775638E+00 -0.3294134E+00
           6
  0.1770522E-01 -0.3144643E-01  0.1673041E+00  -0.7017141E+00 -0.4171213E+00  0.5775874E+00
 -0.1788448E-01  0.2897803E-01  0.1677032E+00  -0.7017141E+00 -0.4171213E+00  0.5775874E+00
 -0.1543131E+00 -0.4967418E-01 -0.5484561E-01  -0.7017141E+00 -0.4171213E+00  0.5775874E+00
 -0.1542948E+00 -0.4974681E-01 -0.5487588E-01  -0.7017141E+00 -0.4171213E+00  0.5775874E+00
 -0.1187051E+00 -0.1101713E+00 -0.5527501E-01  -0.7017141E+00 -0.4171213E+00  0.5775874E+00
  0.1772347E-01 -0.3151906E-01  0.1672738E+00  -0.7017141E+00 -0.4171213E+00  0.5775874E+00
           6
 -0.1186470E+00  0.5100572E-01 -0.1122731E+00  -0.8523893E+00  0.3703420E-02 -0.5228946E+00
 -0.1185197E+00  0.5093212E-01 -0.1124811E+00  -0.8523893E+00  0.3703420E-02 -0.5228946E+00
 -0.1185015E+00  0.5085949E-01 -0.1125113E+00  -0.8523893E+00  0.3703420E-02 -0.5228946E+00
 -0.1541676E+00 -0.4982041E-01 -0.5508386E-01  -0.8523893E+00  0.3703420E-02 -0.5228946E+00
 -0.1542948E+00 -0.4974681E-01 -0.5487588E-01  -0.8523893E+00  0.3703420E-02 -0.5228946E+00
 -0.1543131E+00 -0.4967418E-01 -0.5484561E-01  -0.8523893E+00  0.3703420E-02 -0.5228946E+00
           6
  0.1185197E+00 -0.5093212E-01  0.1124811E+00  -0.3400242E-03 -0.9427843E+00  0.3334031E+00
  0.1772347E-01 -0.3151906E-01  0.1672738E+00  -0.3400242E-03 -0.9427843E+00  0.3334031E+00
 -0.1187051E+00 -0.1101713E+00 -0.5527501E-01  -0.3400242E-03 -0.9427843E+00  0.3334031E+00
 -0.1185779E+00 -0.1102449E+00 -0.5548299E-01  -0.3400242E-03 -0.9427843E+00  0.3334031E+00
 -0.1778160E-01 -0.1296579E+00 -0.1102757E+00  -0.3400242E-03 -0.9427843E+00  0.3334031E+00
  0.1186470E+00 -0.5100572E-01  0.1122731E+00  -0.3400242E-03 -0.9427843E+00  0.3334031E+00
           6
 -0.1185015E+00  0.5085949E-01 -0.1125113E+00  -0.4995832E+00 -0.2888573E+00 -0.8166873E+00
 -0.1770522E-01  0.3144643E-01 -0.1673041E+00  -0.4995832E+00 -0.2888573E+00 -0.8166873E+00
  0.1788448E-01 -0.2897803E-01 -0.1677032E+00  -0.4995832E+00 -0.2888573E+00 -0.8166873E+00
 -0.1778160E-01 -0.1296579E+00 -0.1102757E+00  -0.4995832E+00 -0.2888573E+00 -0.8166873E+00
 -0.1185779E+00 -0.1102449E+00 -0.5548299E-01  -0.4995832E+00 -0.2888573E+00 -0.8166873E+00
 -0.1541676E+00 -0.4982041E-01 -0.5508386E-01  -0.4995832E+00 -0.2888573E+00 -0.8166873E+00
           4
 -0.1788448E-01  0.2897803E-01  0.1677032E+00  -0.8143229E+00  0.4770518E+00  0.3306051E+00
  0.1778160E-01  0.1296579E+00  0.1102757E+00  -0.8143229E+00  0.4770518E+00  0.3306051E+00
 -0.1186470E+00  0.5100572E-01 -0.1122731E+00  -0.8143229E+00  0.4770518E+00  0.3306051E+00
 -0.1543131E+00 -0.4967418E-01 -0.5484561E-01  -0.8143229E+00  0.4770518E+00  0.3306051E+00
           6
 -0.1788448E-01  0.2897803E-01  0.1677032E+00   0.4995832E+00  0.2888573E+00  0.8166873E+00
  0.1770522E-01 -0.3144643E-01  0.1673041E+00   0.4995832E+00  0.2888573E+00  0.8166873E+00
  0.1185015E+00 -0.5085949E-01  0.1125113E+00   0.4995832E+00  0.2888573E+00  0.8166873E+00
  0.1541676E+00  0.4982041E-01  0.5508386E-01   0.4995832E+00  0.2888573E+00  0.8166873E+00
  0.1185779E+00  0.1102449E+00  0.5548299E-01   0.4995832E+00  0.2888573E+00  0.8166873E+00
  0.1778160E-01  0.1296579E+00  0.1102757E+00   0.4995832E+00  0.2888573E+00  0.8166873E+00
           4
  0.1772347E-01 -0.3151906E-01  0.1672738E+00   0.4231830E+00 -0.2559091E+00  0.8691529E+00
  0.1185197E+00 -0.5093212E-01  0.1124811E+00   0.4231830E+00 -0.2559091E+00  0.8691529E+00
  0.1185015E+00 -0.5085949E-01  0.1125113E+00   0.4231830E+00 -0.2559091E+00  0.8691529E+00
  0.1770522E-01 -0.3144643E-01  0.1673041E+00   0.4231830E+00 -0.2559091E+00  0.8691529E+00
           6
  0.1187051E+00  0.1101713E+00  0.5527501E-01   0.3400242E-03  0.9427843E+00 -0.3334031E+00
 -0.1772347E-01  0.3151906E-01 -0.1672738E+00   0.3400242E-03  0.9427843E+00 -0.3334031E+00
 -0.1185197E+00  0.5093212E-01 -0.1124811E+00   0.3400242E-03  0.9427843E+00 -0.3334031E+00
 -0.1186470E+00  0.5100572E-01 -0.1122731E+00   0.3400242E-03  0.9427843E+00 -0.3334031E+00
  0.1778160E-01  0.1296579E+00  0.1102757E+00   0.3400242E-03  0.9427843E+00 -0.3334031E+00
  0.1185779E+00  0.1102449E+00  0.5548299E-01   0.3400242E-03  0.9427843E+00 -0.3334031E+00
           4
 -0.1185197E+00  0.5093212E-01 -0.1124811E+00  -0.4231830E+00  0.2559091E+00 -0.8691529E+00
 -0.1772347E-01  0.3151906E-01 -0.1672738E+00  -0.4231830E+00  0.2559091E+00 -0.8691529E+00
 -0.1770522E-01  0.3144643E-01 -0.1673041E+00  -0.4231830E+00  0.2559091E+00 -0.8691529E+00
 -0.1185015E+00  0.5085949E-01 -0.1125113E+00  -0.4231830E+00  0.2559091E+00 -0.8691529E+00
           6
  0.1185015E+00 -0.5085949E-01  0.1125113E+00   0.8523893E+00 -0.3703420E-02  0.5228946E+00
  0.1185197E+00 -0.5093212E-01  0.1124811E+00   0.8523893E+00 -0.3703420E-02  0.5228946E+00
  0.1186470E+00 -0.5100572E-01  0.1122731E+00   0.8523893E+00 -0.3703420E-02  0.5228946E+00
  0.1543131E+00  0.4967418E-01  0.5484561E-01   0.8523893E+00 -0.3703420E-02  0.5228946E+00
  0.1542948E+00  0.4974681E-01  0.5487588E-01   0.8523893E+00 -0.3703420E-02  0.5228946E+00
  0.1541676E+00  0.4982041E-01  0.5508386E-01   0.8523893E+00 -0.3703420E-02  0.5228946E+00
           4
 -0.1778160E-01 -0.1296579E+00 -0.1102757E+00   0.8143229E+00 -0.4770518E+00 -0.3306051E+00
  0.1788448E-01 -0.2897803E-01 -0.1677032E+00   0.8143229E+00 -0.4770518E+00 -0.3306051E+00
  0.1543131E+00  0.4967418E-01  0.5484561E-01   0.8143229E+00 -0.4770518E+00 -0.3306051E+00
  0.1186470E+00 -0.5100572E-01  0.1122731E+00   0.8143229E+00 -0.4770518E+00 -0.3306051E+00
           6
  0.1543131E+00  0.4967418E-01  0.5484561E-01   0.7017141E+00  0.4171213E+00 -0.5775874E+00
  0.1788448E-01 -0.2897803E-01 -0.1677032E+00   0.7017141E+00  0.4171213E+00 -0.5775874E+00
 -0.1770522E-01  0.3144643E-01 -0.1673041E+00   0.7017141E+00  0.4171213E+00 -0.5775874E+00
 -0.1772347E-01  0.3151906E-01 -0.1672738E+00   0.7017141E+00  0.4171213E+00 -0.5775874E+00
  0.1187051E+00  0.1101713E+00  0.5527501E-01   0.7017141E+00  0.4171213E+00 -0.5775874E+00
  0.1542948E+00  0.4974681E-01  0.5487588E-01   0.7017141E+00  0.4171213E+00 -0.5775874E+00
           4
  0.1541676E+00  0.4982041E-01  0.5508386E-01   0.8145057E+00  0.4775638E+00  0.3294134E+00
  0.1542948E+00  0.4974681E-01  0.5487588E-01   0.8145057E+00  0.4775638E+00  0.3294134E+00
  0.1187051E+00  0.1101713E+00  0.5527501E-01   0.8145057E+00  0.4775638E+00  0.3294134E+00
  0.1185779E+00  0.1102449E+00  0.5548299E-01   0.8145057E+00  0.4775638E+00  0.3294134E+00
 BRILLOUIN-ZONE-PRIMCELL_END
 BRILLOUIN-ZONE-CONVCELL
           4
 -0.1542948E+00 -0.4974681E-01 -0.5487588E-01  -0.8145057E+00 -0.4775638E+00 -0.3294134E+00
 -0.1541676E+00 -0.4982041E-01 -0.5508386E-01  -0.8145057E+00 -0.4775638E+00 -0.3294134E+00
 -0.1185779E+00 -0.1102449E+00 -0.5548299E-01  -0.8145057E+00 -0.4775638E+00 -0.3294134E+00
 -0.1187051E+00 -0.1101713E+00 -0.5527501E-01  -0.8145057E+00 -0.4775638E+00 -0.3294134E+00
           6
  0.1770522E-01 -0.3144643E-01  0.1673041E+00  -0.7017141E+00 -0.4171213E+00  0.5775874E+00
 -0.1788448E-01  0.2897803E-01  0.1677032E+00  -0.7017141E+00 -0.4171213E+00  0.5775874E+00
 -0.1543131E+00 -0.4967418E-01 -0.5484561E-01  -0.7017141E+00 -0.4171213E+00  0.5775874E+00
 -0.1542948E+00 -0.4974681E-01 -0.5487588E-01  -0.7017141E+00 -0.4171213E+00  0.5775874E+00
 -0.1187051E+00 -0.1101713E+00 -0.5527501E-01  -0.7017141E+00 -0.4171213E+00  0.5775874E+00
  0.1772347E-01 -0.3151906E-01  0.1672738E+00  -0.7017141E+00 -0.4171213E+00  0.5775874E+00
           6
 -0.1186470E+00  0.5100572E-01 -0.1122731E+00  -0.8523893E+00  0.3703420E-02 -0.5228946E+00
 -0.1185197E+00  0.5093212E-01 -0.1124811E+00  -0.8523893E+00  0.3703420E-02 -0.5228946E+00
 -0.1185015E+00  0.5085949E-01 -0.1125113E+00  -0.8523893E+00  0.3703420E-02 -0.5228946E+00
 -0.1541676E+00 -0.4982041E-01 -0.5508386E-01  -0.8523893E+00  0.3703420E-02 -0.5228946E+00
 -0.1542948E+00 -0.4974681E-01 -0.5487588E-01  -0.8523893E+00  0.3703420E-02 -0.5228946E+00
 -0.1543131E+00 -0.4967418E-01 -0.5484561E-01  -0.8523893E+00  0.3703420E-02 -0.5228946E+00
           6
  0.1185197E+00 -0.5093212E-01  0.1124811E+00  -0.3400242E-03 -0.9427843E+00  0.3334031E+00
  0.1772347E-01 -0.3151906E-01  0.1672738E+00  -0.3400242E-03 -0.9427843E+00  0.3334031E+00
 -0.1187051E+00 -0.1101713E+00 -0.5527501E-01  -0.3400242E-03 -0.9427843E+00  0.3334031E+00
 -0.1185779E+00 -0.1102449E+00 -0.5548299E-01  -0.3400242E-03 -0.9427843E+00  0.3334031E+00
 -0.1778160E-01 -0.1296579E+00 -0.1102757E+00  -0.3400242E-03 -0.9427843E+00  0.3334031E+00
  0.1186470E+00 -0.5100572E-01  0.1122731E+00  -0.3400242E-03 -0.9427843E+00  0.3334031E+00
           6
 -0.1185015E+00  0.5085949E-01 -0.1125113E+00  -0.4995832E+00 -0.2888573E+00 -0.8166873E+00
 -0.1770522E-01  0.3144643E-01 -0.1673041E+00  -0.4995832E+00 -0.2888573E+00 -0.8166873E+00
  0.1788448E-01 -0.2897803E-01 -0.1677032E+00  -0.4995832E+00 -0.2888573E+00 -0.8166873E+00
 -0.1778160E-01 -0.1296579E+00 -0.1102757E+00  -0.4995832E+00 -0.2888573E+00 -0.8166873E+00
 -0.1185779E+00 -0.1102449E+00 -0.5548299E-01  -0.4995832E+00 -0.2888573E+00 -0.8166873E+00
 -0.1541676E+00 -0.4982041E-01 -0.5508386E-01  -0.4995832E+00 -0.2888573E+00 -0.8166873E+00
           4
 -0.1788448E-01  0.2897803E-01  0.1677032E+00  -0.8143229E+00  0.4770518E+00  0.3306051E+00
  0.1778160E-01  0.1296579E+00  0.1102757E+00  -0.8143229E+00  0.4770518E+00  0.3306051E+00
 -0.1186470E+00  0.5100572E-01 -0.1122731E+00  -0.8143229E+00  0.4770518E+00  0.3306051E+00
 -0.1543131E+00 -0.4967418E-01 -0.5484561E-01  -0.8143229E+00  0.4770518E+00  0.3306051E+00
           6
 -0.1788448E-01  0.2897803E-01  0.1677032E+00   0.4995832E+00  0.2888573E+00  0.8166873E+00
  0.1770522E-01 -0.3144643E-01  0.1673041E+00   0.4995832E+00  0.2888573E+00  0.8166873E+00
  0.1185015E+00 -0.5085949E-01  0.1125113E+00   0.4995832E+00  0.2888573E+00  0.8166873E+00
  0.1541676E+00  0.4982041E-01  0.5508386E-01   0.4995832E+00  0.2888573E+00  0.8166873E+00
  0.1185779E+00  0.1102449E+00  0.5548299E-01   0.4995832E+00  0.2888573E+00  0.8166873E+00
  0.1778160E-01  0.1296579E+00  0.1102757E+00   0.4995832E+00  0.2888573E+00  0.8166873E+00
           4
  0.1772347E-01 -0.3151906E-01  0.1672738E+00   0.4231830E+00 -0.2559091E+00  0.8691529E+00
  0.1185197E+00 -0.5093212E-01  0.1124811E+00   0.4231830E+00 -0.2559091E+00  0.8691529E+00
  0.1185015E+00 -0.5085949E-01  0.1125113E+00   0.4231830E+00 -0.2559091E+00  0.8691529E+00
  0.1770522E-01 -0.3144643E-01  0.1673041E+00   0.4231830E+00 -0.2559091E+00  0.8691529E+00
           6
  0.1187051E+00  0.1101713E+00  0.5527501E-01   0.3400242E-03  0.9427843E+00 -0.3334031E+00
 -0.1772347E-01  0.3151906E-01 -0.1672738E+00   0.3400242E-03  0.9427843E+00 -0.3334031E+00
 -0.1185197E+00  0.5093212E-01 -0.1124811E+00   0.3400242E-03  0.9427843E+00 -0.3334031E+00
 -0.1186470E+00  0.5100572E-01 -0.1122731E+00   0.3400242E-03  0.9427843E+00 -0.3334031E+00
  0.1778160E-01  0.1296579E+00  0.1102757E+00   0.3400242E-03  0.9427843E+00 -0.3334031E+00
  0.1185779E+00  0.1102449E+00  0.5548299E-01   0.3400242E-03  0.9427843E+00 -0.3334031E+00
           4
 -0.1185197E+00  0.5093212E-01 -0.1124811E+00  -0.4231830E+00  0.2559091E+00 -0.8691529E+00
 -0.1772347E-01  0.3151906E-01 -0.1672738E+00  -0.4231830E+00  0.2559091E+00 -0.8691529E+00
 -0.1770522E-01  0.3144643E-01 -0.1673041E+00  -0.4231830E+00  0.2559091E+00 -0.8691529E+00
 -0.1185015E+00  0.5085949E-01 -0.1125113E+00  -0.4231830E+00  0.2559091E+00 -0.8691529E+00
           6
  0.1185015E+00 -0.5085949E-01  0.1125113E+00   0.8523893E+00 -0.3703420E-02  0.5228946E+00
  0.1185197E+00 -0.5093212E-01  0.1124811E+00   0.8523893E+00 -0.3703420E-02  0.5228946E+00
  0.1186470E+00 -0.5100572E-01  0.1122731E+00   0.8523893E+00 -0.3703420E-02  0.5228946E+00
  0.1543131E+00  0.4967418E-01  0.5484561E-01   0.8523893E+00 -0.3703420E-02  0.5228946E+00
  0.1542948E+00  0.4974681E-01  0.5487588E-01   0.8523893E+00 -0.3703420E-02  0.5228946E+00
  0.1541676E+00  0.4982041E-01  0.5508386E-01   0.8523893E+00 -0.3703420E-02  0.5228946E+00
           4
 -0.1778160E-01 -0.1296579E+00 -0.1102757E+00   0.8143229E+00 -0.4770518E+00 -0.3306051E+00
  0.1788448E-01 -0.2897803E-01 -0.1677032E+00   0.8143229E+00 -0.4770518E+00 -0.3306051E+00
  0.1543131E+00  0.4967418E-01  0.5484561E-01   0.8143229E+00 -0.4770518E+00 -0.3306051E+00
  0.1186470E+00 -0.5100572E-01  0.1122731E+00   0.8143229E+00 -0.4770518E+00 -0.3306051E+00
           6
  0.1543131E+00  0.4967418E-01  0.5484561E-01   0.7017141E+00  0.4171213E+00 -0.5775874E+00
  0.1788448E-01 -0.2897803E-01 -0.1677032E+00   0.7017141E+00  0.4171213E+00 -0.5775874E+00
 -0.1770522E-01  0.3144643E-01 -0.1673041E+00   0.7017141E+00  0.4171213E+00 -0.5775874E+00
 -0.1772347E-01  0.3151906E-01 -0.1672738E+00   0.7017141E+00  0.4171213E+00 -0.5775874E+00
  0.1187051E+00  0.1101713E+00  0.5527501E-01   0.7017141E+00  0.4171213E+00 -0.5775874E+00
  0.1542948E+00  0.4974681E-01  0.5487588E-01   0.7017141E+00  0.4171213E+00 -0.5775874E+00
           4
  0.1541676E+00  0.4982041E-01  0.5508386E-01   0.8145057E+00  0.4775638E+00  0.3294134E+00
  0.1542948E+00  0.4974681E-01  0.5487588E-01   0.8145057E+00  0.4775638E+00  0.3294134E+00
  0.1187051E+00  0.1101713E+00  0.5527501E-01   0.8145057E+00  0.4775638E+00  0.3294134E+00
  0.1185779E+00  0.1102449E+00  0.5548299E-01   0.8145057E+00  0.4775638E+00  0.3294134E+00
 BRILLOUIN-ZONE-CONVCELL_END
 ATOMS
   25    5.4980762620    3.1100450820    2.2705532090    0.0001789200    0.0003041300   -0.0001912300
   25    7.3296751970    6.2200078850    2.2944494040    0.0001804900    0.0003061400   -0.0001929600
   25    9.1615099840    3.1099075110    2.2739075160    0.0001816500    0.0003046800   -0.0001931700
   25   10.9931144490    6.2198759630    2.2977982330    0.0001802600    0.0003033800   -0.0001917700