
     Program PWSCF v.7.3.1 starts on 20Jan2025 at 12:20:56 

     This program is part of the open-source Quantum ESPRESSO suite
     for quantum simulation of materials; please cite
         "P. Giannozzi et al., J. Phys.:Condens. Matter 21 395502 (2009);
         "P. Giannozzi et al., J. Phys.:Condens. Matter 29 465901 (2017);
         "P. Giannozzi et al., J. Chem. Phys. 152 154105 (2020);
          URL http://www.quantum-espresso.org", 
     in publications or presentations arising from this work. More details at
     http://www.quantum-espresso.org/quote

     Parallel version (MPI), running on     3 processors

     MPI processes distributed on     1 nodes
     3170 MiB available memory on the printing compute node when the environment starts

     Reading input from vc_relax.in

     Current dimensions of program PWSCF are:
     Max number of different atomic species (ntypx) = 10
     Max number of k-points (npk) =  40000
     Max angular momentum in pseudopotentials (lmaxx) =  4
     file Mn.pbe-spn-kjpaw_psl.0.3.1.UPF: wavefunction(s)  3P 3D renormalized
     file Mn.pbe-spn-kjpaw_psl.0.3.1.UPF: wavefunction(s)  3P 3D renormalized
     file Mn.pbe-spn-kjpaw_psl.0.3.1.UPF: wavefunction(s)  3P 3D renormalized
     file Mn.pbe-spn-kjpaw_psl.0.3.1.UPF: wavefunction(s)  3P 3D renormalized
     file S.pbe-n-kjpaw_psl.1.0.0.UPF: wavefunction(s)  3S 3P renormalized

     R & G space division:  proc/nbgrp/npool/nimage =       3
     Subspace diagonalization in iterative solution of the eigenvalue problem:
     a serial algorithm will be used


     Parallelization info
     --------------------
     sticks:   dense  smooth     PW     G-vecs:    dense   smooth      PW
     Min         747     600    185                11801     8454    1412
     Max         749     601    185                11802     8456    1413
     Sum        2245    1801    555                35405    25365    4237

     Using Slab Decomposition



     bravais-lattice index     =            0
     lattice parameter (alat)  =      14.7866  a.u.
     unit-cell volume          =    1143.0296 (a.u.)^3
     number of atoms/cell      =            8
     number of atomic types    =            5
     number of electrons       =        84.00
     number of Kohn-Sham states=           50
     kinetic-energy cutoff     =      30.0000  Ry
     charge density cutoff     =     150.0000  Ry
     scf convergence threshold =      1.0E-10
     mixing beta               =       0.7000
     number of iterations used =            8  plain     mixing
     energy convergence thresh.=      1.0E-05
     force convergence thresh. =      1.0E-04
     press convergence thresh. =      5.0E-01
     Exchange-correlation= SLA  PW   PBX  PBC
                           (   1   4   3   4   0   0   0)
     nstep                     =           50


     celldm(1)=  14.786571  celldm(2)=   0.000000  celldm(3)=   0.000000
     celldm(4)=   0.000000  celldm(5)=   0.000000  celldm(6)=   0.000000

     crystal axes: (cart. coord. in units of alat)
               a(1) = (   1.000000   0.000000   0.000000 )  
               a(2) = (   0.500000   0.866025   0.000000 )  
               a(3) = (   0.250000   0.144338   0.408248 )  

     reciprocal axes: (cart. coord. in units 2 pi/alat)
               b(1) = (  1.000000 -0.577350 -0.408248 )  
               b(2) = (  0.000000  1.154700 -0.408248 )  
               b(3) = (  0.000000  0.000000  2.449490 )  


     PseudoPot. # 1 for Mn read from file:
     ./../../../pseudos/Mn.pbe-spn-kjpaw_psl.0.3.1.UPF
     MD5 check sum: ba19e6d7ccbc12830efad05ba8577d9c
     Pseudo is Projector augmented-wave + core cor, Zval = 15.0
     Generated using &quot;atomic&quot; code by A. Dal Corso  v.6.2.2
     Shape of augmentation charge: PSQ
     Using radial grid of 1187 points,  6 beta functions with: 
                l(1) =   0
                l(2) =   0
                l(3) =   1
                l(4) =   1
                l(5) =   2
                l(6) =   2
     Q(r) pseudized with 0 coefficients 


     PseudoPot. # 2 for Mn read from file:
     ./../../../pseudos/Mn.pbe-spn-kjpaw_psl.0.3.1.UPF
     MD5 check sum: ba19e6d7ccbc12830efad05ba8577d9c
     Pseudo is Projector augmented-wave + core cor, Zval = 15.0
     Generated using &quot;atomic&quot; code by A. Dal Corso  v.6.2.2
     Shape of augmentation charge: PSQ
     Using radial grid of 1187 points,  6 beta functions with: 
                l(1) =   0
                l(2) =   0
                l(3) =   1
                l(4) =   1
                l(5) =   2
                l(6) =   2
     Q(r) pseudized with 0 coefficients 


     PseudoPot. # 3 for Mn read from file:
     ./../../../pseudos/Mn.pbe-spn-kjpaw_psl.0.3.1.UPF
     MD5 check sum: ba19e6d7ccbc12830efad05ba8577d9c
     Pseudo is Projector augmented-wave + core cor, Zval = 15.0
     Generated using &quot;atomic&quot; code by A. Dal Corso  v.6.2.2
     Shape of augmentation charge: PSQ
     Using radial grid of 1187 points,  6 beta functions with: 
                l(1) =   0
                l(2) =   0
                l(3) =   1
                l(4) =   1
                l(5) =   2
                l(6) =   2
     Q(r) pseudized with 0 coefficients 


     PseudoPot. # 4 for Mn read from file:
     ./../../../pseudos/Mn.pbe-spn-kjpaw_psl.0.3.1.UPF
     MD5 check sum: ba19e6d7ccbc12830efad05ba8577d9c
     Pseudo is Projector augmented-wave + core cor, Zval = 15.0
     Generated using &quot;atomic&quot; code by A. Dal Corso  v.6.2.2
     Shape of augmentation charge: PSQ
     Using radial grid of 1187 points,  6 beta functions with: 
                l(1) =   0
                l(2) =   0
                l(3) =   1
                l(4) =   1
                l(5) =   2
                l(6) =   2
     Q(r) pseudized with 0 coefficients 


     PseudoPot. # 5 for S  read from file:
     ./../../../pseudos/S.pbe-n-kjpaw_psl.1.0.0.UPF
     MD5 check sum: fb45dfebcf3e72a4e1bd4a866ec2e262
     Pseudo is Projector augmented-wave + core cor, Zval =  6.0
     Generated using &quot;atomic&quot; code by A. Dal Corso  v.6.3
     Shape of augmentation charge: PSQ
     Using radial grid of 1151 points,  6 beta functions with: 
                l(1) =   0
                l(2) =   0
                l(3) =   1
                l(4) =   1
                l(5) =   2
                l(6) =   2
     Q(r) pseudized with 0 coefficients 


     atomic species   valence    mass     pseudopotential
     Mn1              15.00    54.93800     Mn( 1.00)
     Mn2              15.00    54.93800     Mn( 1.00)
     Mn3              15.00    54.93800     Mn( 1.00)
     Mn4              15.00    54.93800     Mn( 1.00)
     S                 6.00    32.06500     S ( 1.00)

     Starting magnetic structure 
     atomic species   magnetization
     Mn1             0.200
     Mn2            -0.200
     Mn3             0.200
     Mn4            -0.200
     S               0.000

     No symmetry found


                                    s                        frac. trans.

      isym =  1     identity                                     

 cryst.   s( 1) = (     1          0          0      )
                  (     0          1          0      )
                  (     0          0          1      )

 cart.    s( 1) = (  1.0000000  0.0000000  0.0000000 )
                  (  0.0000000  1.0000000  0.0000000 )
                  (  0.0000000  0.0000000  1.0000000 )


   Cartesian axes

     site n.     atom                  positions (alat units)
         1        Mn1    tau(   1) = (   0.7499788   0.4290035   0.3076173  )
         2        Mn2    tau(   2) = (   0.9999787   0.8620145   0.3076179  )
         3        Mn3    tau(   3) = (   1.2499789   0.4290033   0.3076173  )
         4        Mn4    tau(   4) = (   1.4999789   0.8620145   0.3076178  )
         5        S      tau(   5) = (   1.2500211   0.1483480   0.4068169  )
         6        S      tau(   6) = (   1.5000210   0.5813601   0.4068171  )
         7        S      tau(   7) = (   0.7500211   0.1483479   0.4068169  )
         8        S      tau(   8) = (   1.0000211   0.5813600   0.4068170  )

   Crystallographic axes

     site n.     atom                  positions (cryst. coord.)
         1        Mn1    tau(   1) = (  0.3767093  0.3697864  0.7535053  )
         2        Mn2    tau(   2) = (  0.3767100  0.8697841  0.7535069  )
         3        Mn3    tau(   3) = (  0.8767095  0.3697861  0.7535054  )
         4        Mn4    tau(   4) = (  0.8767103  0.8697842  0.7535065  )
         5        S      tau(   5) = (  0.9982901  0.0052152  0.9964937  )
         6        S      tau(   6) = (  0.9982902  0.5052145  0.9964942  )
         7        S      tau(   7) = (  0.4982901  0.0052152  0.9964937  )
         8        S      tau(   8) = (  0.4982904  0.5052144  0.9964941  )

     number of k points=    23  Gaussian smearing, width (Ry)=  0.0100
                       cart. coord. in units 2pi/alat
        k(    1) = (   0.0000000   0.0000000   0.0000000), wk =   0.0222222
        k(    2) = (   0.0000000   0.0000000   0.4898979), wk =   0.0444444
        k(    3) = (   0.0000000   0.0000000   0.9797958), wk =   0.0444444
        k(    4) = (   0.0000000   0.3849002  -0.1360827), wk =   0.0444444
        k(    5) = (   0.0000000   0.3849002   0.3538152), wk =   0.0444444
        k(    6) = (   0.0000000   0.3849002   0.8437131), wk =   0.0444444
        k(    7) = (   0.0000000   0.3849002  -1.1158786), wk =   0.0444444
        k(    8) = (   0.0000000   0.3849002  -0.6259807), wk =   0.0444444
        k(    9) = (   0.3333333   0.1924501  -0.2721655), wk =   0.0444444
        k(   10) = (   0.3333333   0.1924501   0.2177324), wk =   0.0444444
        k(   11) = (   0.3333333   0.1924501   0.7076304), wk =   0.0444444
        k(   12) = (   0.3333333   0.1924501  -1.2519613), wk =   0.0444444
        k(   13) = (   0.3333333   0.1924501  -0.7620634), wk =   0.0444444
        k(   14) = (   0.3333333  -0.5773502   0.0000000), wk =   0.0444444
        k(   15) = (   0.3333333  -0.5773502   0.4898979), wk =   0.0444444
        k(   16) = (   0.3333333  -0.5773502   0.9797959), wk =   0.0444444
        k(   17) = (  -0.3333333   0.1924501   0.1360827), wk =   0.0444444
        k(   18) = (  -0.3333333   0.1924501  -0.3538152), wk =   0.0444444
        k(   19) = (  -0.3333333   0.1924501  -0.8437131), wk =   0.0444444
        k(   20) = (  -0.3333333   0.1924501   1.1158786), wk =   0.0444444
        k(   21) = (  -0.3333333   0.1924501   0.6259807), wk =   0.0444444
        k(   22) = (   0.3333333  -0.5773502  -0.4898979), wk =   0.0444444
        k(   23) = (   0.3333333  -0.5773502  -0.9797958), wk =   0.0444444

                       cryst. coord.
        k(    1) = (   0.0000000   0.0000000   0.0000000), wk =   0.0222222
        k(    2) = (   0.0000000   0.0000000   0.2000000), wk =   0.0444444
        k(    3) = (   0.0000000   0.0000000   0.4000000), wk =   0.0444444
        k(    4) = (   0.0000000   0.3333333   0.0000000), wk =   0.0444444
        k(    5) = (   0.0000000   0.3333333   0.2000000), wk =   0.0444444
        k(    6) = (   0.0000000   0.3333333   0.4000000), wk =   0.0444444
        k(    7) = (   0.0000000   0.3333333  -0.4000000), wk =   0.0444444
        k(    8) = (   0.0000000   0.3333333  -0.2000000), wk =   0.0444444
        k(    9) = (   0.3333333   0.3333333   0.0000000), wk =   0.0444444
        k(   10) = (   0.3333333   0.3333333   0.2000000), wk =   0.0444444
        k(   11) = (   0.3333333   0.3333333   0.4000000), wk =   0.0444444
        k(   12) = (   0.3333333   0.3333333  -0.4000000), wk =   0.0444444
        k(   13) = (   0.3333333   0.3333333  -0.2000000), wk =   0.0444444
        k(   14) = (   0.3333333  -0.3333333   0.0000000), wk =   0.0444444
        k(   15) = (   0.3333333  -0.3333333   0.2000000), wk =   0.0444444
        k(   16) = (   0.3333333  -0.3333333   0.4000000), wk =   0.0444444
        k(   17) = (  -0.3333333   0.0000000  -0.0000000), wk =   0.0444444
        k(   18) = (  -0.3333333   0.0000000  -0.2000000), wk =   0.0444444
        k(   19) = (  -0.3333333   0.0000000  -0.4000000), wk =   0.0444444
        k(   20) = (  -0.3333333   0.0000000   0.4000000), wk =   0.0444444
        k(   21) = (  -0.3333333   0.0000000   0.2000000), wk =   0.0444444
        k(   22) = (   0.3333333  -0.3333333  -0.2000000), wk =   0.0444444
        k(   23) = (   0.3333333  -0.3333333  -0.4000000), wk =   0.0444444

     Dense  grid:    35405 G-vectors     FFT dimensions: (  60,  60,  30)

     Smooth grid:    25365 G-vectors     FFT dimensions: (  54,  54,  25)

     Dynamical RAM for                 wfc:       0.81 MB

     Dynamical RAM for     wfc (w. buffer):      37.90 MB

     Dynamical RAM for           str. fact:       0.90 MB

     Dynamical RAM for           local pot:       0.00 MB

     Dynamical RAM for          nlocal pot:       2.32 MB

     Dynamical RAM for                qrad:       9.84 MB

     Dynamical RAM for          rho,v,vnew:       2.73 MB

     Dynamical RAM for               rhoin:       0.91 MB

     Dynamical RAM for            rho*nmix:       5.76 MB

     Dynamical RAM for           G-vectors:       0.74 MB

     Dynamical RAM for          h,s,v(r/c):       0.46 MB

     Dynamical RAM for          <psi|beta>:       0.11 MB

     Dynamical RAM for                 psi:       1.61 MB

     Dynamical RAM for                hpsi:       1.61 MB

     Dynamical RAM for                spsi:       1.61 MB

     Dynamical RAM for      wfcinit/wfcrot:       1.88 MB

     Dynamical RAM for           addusdens:      34.40 MB

     Dynamical RAM for          addusforce:      35.51 MB

     Dynamical RAM for         addusstress:      36.47 MB

     Estimated static dynamical RAM per process >      58.07 MB

     Estimated max dynamical RAM per process >     100.30 MB

     Estimated total dynamical RAM >     300.91 MB

     Check: negative core charge=   -0.000238
     Generating pointlists ...
     new r_m :   0.1228 (alat units)  1.8156 (a.u.) for type    1
     new r_m :   0.1228 (alat units)  1.8156 (a.u.) for type    2
     new r_m :   0.1228 (alat units)  1.8156 (a.u.) for type    3
     new r_m :   0.1228 (alat units)  1.8156 (a.u.) for type    4
     new r_m :   0.1228 (alat units)  1.8156 (a.u.) for type    5

     Initial potential from superposition of free atoms

     starting charge      83.9979, renormalised to      84.0000
     Starting wfcs are   56 randomized atomic wfcs
     Checking if some PAW data can be deallocated... 
       PAW data deallocated on    2 nodes for type:  1
       PAW data deallocated on    2 nodes for type:  2
       PAW data deallocated on    2 nodes for type:  3
       PAW data deallocated on    2 nodes for type:  4
       PAW data deallocated on    1 nodes for type:  5

     total cpu time spent up to now is        8.5 secs

     Self-consistent Calculation

     iteration #  1     ecut=    30.00 Ry     beta= 0.70
     Davidson diagonalization with overlap

---- Real-time Memory Report at c_bands before calling an iterative solver
            98 MiB given to the printing process from OS
             0 MiB allocation reported by mallinfo(arena+hblkhd)
          2929 MiB available memory on the node where the printing process lives
------------------
     ethr =  1.00E-02,  avg # of iterations =  2.0

     Threshold (ethr) on eigenvalues was too large:
     Diagonalizing with lowered threshold

     Davidson diagonalization with overlap

---- Real-time Memory Report at c_bands before calling an iterative solver
           131 MiB given to the printing process from OS
             0 MiB allocation reported by mallinfo(arena+hblkhd)
          2799 MiB available memory on the node where the printing process lives
------------------
     ethr =  3.69E-04,  avg # of iterations =  4.0

     total cpu time spent up to now is       49.3 secs

     total energy              =   -1411.02603453 Ry
     estimated scf accuracy    <       0.27073062 Ry

     total magnetization       =    -0.00 Bohr mag/cell
     absolute magnetization    =    16.24 Bohr mag/cell

     iteration #  2     ecut=    30.00 Ry     beta= 0.70
     Davidson diagonalization with overlap

---- Real-time Memory Report at c_bands before calling an iterative solver
           133 MiB given to the printing process from OS
             0 MiB allocation reported by mallinfo(arena+hblkhd)
          2790 MiB available memory on the node where the printing process lives
------------------
     ethr =  3.22E-04,  avg # of iterations =  2.3

     total cpu time spent up to now is       71.1 secs

     total energy              =   -1411.09736253 Ry
     estimated scf accuracy    <       0.02997110 Ry

     total magnetization       =    -0.00 Bohr mag/cell
     absolute magnetization    =    17.10 Bohr mag/cell

     iteration #  3     ecut=    30.00 Ry     beta= 0.70
     Davidson diagonalization with overlap

---- Real-time Memory Report at c_bands before calling an iterative solver
           133 MiB given to the printing process from OS
             0 MiB allocation reported by mallinfo(arena+hblkhd)
          2800 MiB available memory on the node where the printing process lives
------------------
     ethr =  3.57E-05,  avg # of iterations =  4.4

     total cpu time spent up to now is       94.3 secs

     total energy              =   -1411.09862933 Ry
     estimated scf accuracy    <       0.03992539 Ry

     total magnetization       =     0.00 Bohr mag/cell
     absolute magnetization    =    17.54 Bohr mag/cell

     iteration #  4     ecut=    30.00 Ry     beta= 0.70
     Davidson diagonalization with overlap

---- Real-time Memory Report at c_bands before calling an iterative solver
           134 MiB given to the printing process from OS
             0 MiB allocation reported by mallinfo(arena+hblkhd)
          2790 MiB available memory on the node where the printing process lives
------------------
     ethr =  3.57E-05,  avg # of iterations =  6.0

     total cpu time spent up to now is      116.3 secs

     total energy              =   -1411.10339489 Ry
     estimated scf accuracy    <       0.11344384 Ry

     total magnetization       =    -0.00 Bohr mag/cell
     absolute magnetization    =    17.62 Bohr mag/cell

     iteration #  5     ecut=    30.00 Ry     beta= 0.70
     Davidson diagonalization with overlap

---- Real-time Memory Report at c_bands before calling an iterative solver
           135 MiB given to the printing process from OS
             0 MiB allocation reported by mallinfo(arena+hblkhd)
          2789 MiB available memory on the node where the printing process lives
------------------
     ethr =  3.57E-05,  avg # of iterations =  3.8

     total cpu time spent up to now is      136.4 secs

     total energy              =   -1411.11520955 Ry
     estimated scf accuracy    <       0.00512626 Ry

     total magnetization       =     0.00 Bohr mag/cell
     absolute magnetization    =    17.88 Bohr mag/cell

     iteration #  6     ecut=    30.00 Ry     beta= 0.70
     Davidson diagonalization with overlap

---- Real-time Memory Report at c_bands before calling an iterative solver
           135 MiB given to the printing process from OS
             0 MiB allocation reported by mallinfo(arena+hblkhd)
          2787 MiB available memory on the node where the printing process lives
------------------
     c_bands:  1 eigenvalues not converged
     ethr =  6.10E-06,  avg # of iterations =  7.3

     total cpu time spent up to now is      161.7 secs

     total energy              =   -1411.11633278 Ry
     estimated scf accuracy    <       0.00216179 Ry

     total magnetization       =    -0.00 Bohr mag/cell
     absolute magnetization    =    17.88 Bohr mag/cell

     iteration #  7     ecut=    30.00 Ry     beta= 0.70
     Davidson diagonalization with overlap

---- Real-time Memory Report at c_bands before calling an iterative solver
           136 MiB given to the printing process from OS
             0 MiB allocation reported by mallinfo(arena+hblkhd)
          2785 MiB available memory on the node where the printing process lives
------------------
     c_bands:  1 eigenvalues not converged
     c_bands:  1 eigenvalues not converged
     c_bands:  1 eigenvalues not converged
     ethr =  2.57E-06,  avg # of iterations =  9.5

     total cpu time spent up to now is      187.6 secs

     total energy              =   -1411.11647107 Ry
     estimated scf accuracy    <       0.00438607 Ry

     total magnetization       =     0.00 Bohr mag/cell
     absolute magnetization    =    17.91 Bohr mag/cell

     iteration #  8     ecut=    30.00 Ry     beta= 0.70
     Davidson diagonalization with overlap

---- Real-time Memory Report at c_bands before calling an iterative solver
           136 MiB given to the printing process from OS
             0 MiB allocation reported by mallinfo(arena+hblkhd)
          2834 MiB available memory on the node where the printing process lives
------------------
     ethr =  2.57E-06,  avg # of iterations =  5.7

     total cpu time spent up to now is      206.5 secs

     total energy              =   -1411.11694497 Ry
     estimated scf accuracy    <       0.00010341 Ry

     total magnetization       =     0.00 Bohr mag/cell
     absolute magnetization    =    17.94 Bohr mag/cell

     iteration #  9     ecut=    30.00 Ry     beta= 0.70
     Davidson diagonalization with overlap

---- Real-time Memory Report at c_bands before calling an iterative solver
           137 MiB given to the printing process from OS
             0 MiB allocation reported by mallinfo(arena+hblkhd)
          2833 MiB available memory on the node where the printing process lives
------------------
     ethr =  1.23E-07,  avg # of iterations =  5.3

     total cpu time spent up to now is      227.6 secs

     total energy              =   -1411.11697243 Ry
     estimated scf accuracy    <       0.00004119 Ry

     total magnetization       =     0.00 Bohr mag/cell
     absolute magnetization    =    17.94 Bohr mag/cell

     iteration # 10     ecut=    30.00 Ry     beta= 0.70
     Davidson diagonalization with overlap

---- Real-time Memory Report at c_bands before calling an iterative solver
           137 MiB given to the printing process from OS
             0 MiB allocation reported by mallinfo(arena+hblkhd)
          2831 MiB available memory on the node where the printing process lives
------------------
     ethr =  4.90E-08,  avg # of iterations =  2.0

     total cpu time spent up to now is      244.5 secs

     total energy              =   -1411.11697707 Ry
     estimated scf accuracy    <       0.00000966 Ry

     total magnetization       =     0.00 Bohr mag/cell
     absolute magnetization    =    17.94 Bohr mag/cell

     iteration # 11     ecut=    30.00 Ry     beta= 0.70
     Davidson diagonalization with overlap

---- Real-time Memory Report at c_bands before calling an iterative solver
           137 MiB given to the printing process from OS
             0 MiB allocation reported by mallinfo(arena+hblkhd)
          2833 MiB available memory on the node where the printing process lives
------------------
     ethr =  1.15E-08,  avg # of iterations =  2.5

     total cpu time spent up to now is      261.3 secs

     total energy              =   -1411.11697773 Ry
     estimated scf accuracy    <       0.00000203 Ry

     total magnetization       =    -0.00 Bohr mag/cell
     absolute magnetization    =    17.94 Bohr mag/cell

     iteration # 12     ecut=    30.00 Ry     beta= 0.70
     Davidson diagonalization with overlap

---- Real-time Memory Report at c_bands before calling an iterative solver
           137 MiB given to the printing process from OS
             0 MiB allocation reported by mallinfo(arena+hblkhd)
          2834 MiB available memory on the node where the printing process lives
------------------
     ethr =  2.42E-09,  avg # of iterations =  4.3

     total cpu time spent up to now is      281.4 secs

     total energy              =   -1411.11697815 Ry
     estimated scf accuracy    <       0.00000020 Ry

     total magnetization       =    -0.00 Bohr mag/cell
     absolute magnetization    =    17.94 Bohr mag/cell

     iteration # 13     ecut=    30.00 Ry     beta= 0.70
     Davidson diagonalization with overlap

---- Real-time Memory Report at c_bands before calling an iterative solver
           137 MiB given to the printing process from OS
             0 MiB allocation reported by mallinfo(arena+hblkhd)
          2812 MiB available memory on the node where the printing process lives
------------------
     ethr =  2.32E-10,  avg # of iterations =  4.3

     total cpu time spent up to now is      304.3 secs

     total energy              =   -1411.11697823 Ry
     estimated scf accuracy    <       0.00000004 Ry

     total magnetization       =     0.00 Bohr mag/cell
     absolute magnetization    =    17.94 Bohr mag/cell

     iteration # 14     ecut=    30.00 Ry     beta= 0.70
     Davidson diagonalization with overlap

---- Real-time Memory Report at c_bands before calling an iterative solver
           137 MiB given to the printing process from OS
             0 MiB allocation reported by mallinfo(arena+hblkhd)
          2793 MiB available memory on the node where the printing process lives
------------------
     ethr =  4.52E-11,  avg # of iterations =  3.2

     total cpu time spent up to now is      322.0 secs

     total energy              =   -1411.11697824 Ry
     estimated scf accuracy    <          3.1E-09 Ry

     total magnetization       =    -0.00 Bohr mag/cell
     absolute magnetization    =    17.94 Bohr mag/cell

     iteration # 15     ecut=    30.00 Ry     beta= 0.70
     Davidson diagonalization with overlap

---- Real-time Memory Report at c_bands before calling an iterative solver
           137 MiB given to the printing process from OS
             0 MiB allocation reported by mallinfo(arena+hblkhd)
          2807 MiB available memory on the node where the printing process lives
------------------
     ethr =  3.65E-12,  avg # of iterations =  4.7

     total cpu time spent up to now is      342.9 secs

     total energy              =   -1411.11697824 Ry
     estimated scf accuracy    <          4.1E-10 Ry

     total magnetization       =    -0.00 Bohr mag/cell
     absolute magnetization    =    17.94 Bohr mag/cell

     iteration # 16     ecut=    30.00 Ry     beta= 0.70
     Davidson diagonalization with overlap

---- Real-time Memory Report at c_bands before calling an iterative solver
           137 MiB given to the printing process from OS
             0 MiB allocation reported by mallinfo(arena+hblkhd)
          2810 MiB available memory on the node where the printing process lives
------------------
     ethr =  4.88E-13,  avg # of iterations =  3.8

     Magnetic moment per site  (integrated on atomic sphere of radius R)
     atom   1 (R=0.123)  charge= 12.7882  magn=  3.8618
     atom   2 (R=0.123)  charge= 12.7882  magn= -3.8618
     atom   3 (R=0.123)  charge= 12.7882  magn=  3.8618
     atom   4 (R=0.123)  charge= 12.7882  magn= -3.8618
     atom   5 (R=0.123)  charge=  3.9422  magn= -0.0524
     atom   6 (R=0.123)  charge=  3.9422  magn=  0.0524
     atom   7 (R=0.123)  charge=  3.9422  magn= -0.0524
     atom   8 (R=0.123)  charge=  3.9422  magn=  0.0524

     total cpu time spent up to now is      361.3 secs

     End of self-consistent calculation

 ------ SPIN UP ------------


          k = 0.0000 0.0000 0.0000 (  3203 PWs)   bands (ev):

   -74.4036 -74.4032 -70.0028 -70.0025 -43.1509 -43.1490 -43.1487 -43.1485
   -43.0830 -43.0825 -38.8070 -38.8064 -38.7831 -38.7803 -38.7796 -38.7795
    -6.1273  -5.4426  -5.4061  -5.1887   2.0544   2.1899   2.3579   3.1491
     3.1495   3.3109   3.4117   3.5004   3.9003   4.1575   4.1580   4.2325
     5.1187   5.1619   5.1678   5.1687   5.3653   6.1614   6.4751   6.5023
     7.3639   7.3642   8.4413   8.7640   8.7835   8.7839   8.9612   9.2873
     9.3938   9.6393

     occupation numbers 
     1.0000   1.0000   1.0000   1.0000   1.0000   1.0000   1.0000   1.0000
     1.0000   1.0000   1.0000   1.0000   1.0000   1.0000   1.0000   1.0000
     1.0000   1.0000   1.0000   1.0000   1.0000   1.0000   1.0000   1.0000
     1.0000   1.0000   1.0000   1.0000   1.0000   1.0000   1.0000   1.0000
     1.0000   1.0000   1.0000   1.0000   1.0000   1.0000   1.0000   1.0000
     1.0000   1.0000   0.0000   0.0000   0.0000   0.0000   0.0000   0.0000
     0.0000   0.0000

          k = 0.0000 0.0000 0.4899 (  3184 PWs)   bands (ev):

   -74.4034 -74.4032 -70.0027 -70.0024 -43.1505 -43.1495 -43.1494 -43.1487
   -43.0827 -43.0826 -38.8066 -38.8064 -38.7825 -38.7809 -38.7808 -38.7798
    -5.9075  -5.3875  -5.3381  -5.2548   2.3191   2.4234   2.5752   2.8785
     3.2294   3.2513   3.3595   3.5242   3.7661   3.7839   3.9346   4.1619
     4.8720   5.0296   5.1510   5.2375   5.6079   6.0989   6.1395   6.3143
     6.6780   7.0451   8.3461   8.6320   8.6943   8.7641   9.0011   9.3140
     9.4587   9.6509

     occupation numbers 
     1.0000   1.0000   1.0000   1.0000   1.0000   1.0000   1.0000   1.0000
     1.0000   1.0000   1.0000   1.0000   1.0000   1.0000   1.0000   1.0000
     1.0000   1.0000   1.0000   1.0000   1.0000   1.0000   1.0000   1.0000
     1.0000   1.0000   1.0000   1.0000   1.0000   1.0000   1.0000   1.0000
     1.0000   1.0000   1.0000   1.0000   1.0000   1.0000   1.0000   1.0000
     1.0000   1.0000   0.0000   0.0000   0.0000   0.0000   0.0000   0.0000
     0.0000   0.0000

          k = 0.0000 0.0000 0.9798 (  3151 PWs)   bands (ev):

   -74.4032 -74.4031 -70.0024 -70.0024 -43.1506 -43.1506 -43.1492 -43.1489
   -43.0825 -43.0824 -38.8064 -38.8063 -38.7828 -38.7827 -38.7804 -38.7802
    -5.5149  -5.4253  -5.2125  -5.2097   2.1455   2.1457   2.4364   2.4696
     3.3584   3.3945   3.4769   3.5091   3.8540   3.8844   4.1123   4.2177
     5.0000   5.0005   5.1370   5.1910   5.5248   5.5972   6.1106   6.2043
     6.4719   6.5943   8.3874   8.4262   8.6895   8.9156   8.9693   9.0464
     9.3167   9.4110

     occupation numbers 
     1.0000   1.0000   1.0000   1.0000   1.0000   1.0000   1.0000   1.0000
     1.0000   1.0000   1.0000   1.0000   1.0000   1.0000   1.0000   1.0000
     1.0000   1.0000   1.0000   1.0000   1.0000   1.0000   1.0000   1.0000
     1.0000   1.0000   1.0000   1.0000   1.0000   1.0000   1.0000   1.0000
     1.0000   1.0000   1.0000   1.0000   1.0000   1.0000   1.0000   1.0000
     1.0000   1.0000   0.0000   0.0000   0.0000   0.0000   0.0000   0.0000
     0.0000   0.0000

          k = 0.0000 0.3849-0.1361 (  3185 PWs)   bands (ev):

   -74.4035 -74.4032 -70.0027 -70.0024 -43.1508 -43.1490 -43.1486 -43.1484
   -43.0829 -43.0825 -38.8069 -38.8064 -38.7830 -38.7803 -38.7795 -38.7794
    -5.9726  -5.5935  -5.3996  -5.2406   2.2409   2.4340   2.5941   3.1030
     3.1634   3.1639   3.3344   3.4091   3.6143   4.2001   4.2007   4.2358
     5.0965   5.0974   5.1417   5.1937   5.3522   5.8557   6.4942   6.4975
     7.3408   7.3413   8.5877   8.8910   8.8913   8.9400   9.0354   9.0487
     9.4156   9.5132

     occupation numbers 
     1.0000   1.0000   1.0000   1.0000   1.0000   1.0000   1.0000   1.0000
     1.0000   1.0000   1.0000   1.0000   1.0000   1.0000   1.0000   1.0000
     1.0000   1.0000   1.0000   1.0000   1.0000   1.0000   1.0000   1.0000
     1.0000   1.0000   1.0000   1.0000   1.0000   1.0000   1.0000   1.0000
     1.0000   1.0000   1.0000   1.0000   1.0000   1.0000   1.0000   1.0000
     1.0000   1.0000   0.0000   0.0000   0.0000   0.0000   0.0000   0.0000
     0.0000   0.0000

          k = 0.0000 0.3849 0.3538 (  3165 PWs)   bands (ev):

   -74.4034 -74.4031 -70.0026 -70.0024 -43.1504 -43.1494 -43.1493 -43.1487
   -43.0827 -43.0824 -38.8066 -38.8063 -38.7824 -38.7808 -38.7807 -38.7797
    -5.8747  -5.4520  -5.3779  -5.1883   2.4505   2.5387   2.7209   2.8102
     3.1548   3.2565   3.3589   3.4537   3.5839   3.7388   4.0416   4.1722
     4.9078   5.0454   5.1315   5.2281   5.4825   5.9033   6.1586   6.3908
     6.7076   7.0385   8.3588   8.5642   8.8396   8.8825   9.0782   9.1824
     9.5496   9.8012

     occupation numbers 
     1.0000   1.0000   1.0000   1.0000   1.0000   1.0000   1.0000   1.0000
     1.0000   1.0000   1.0000   1.0000   1.0000   1.0000   1.0000   1.0000
     1.0000   1.0000   1.0000   1.0000   1.0000   1.0000   1.0000   1.0000
     1.0000   1.0000   1.0000   1.0000   1.0000   1.0000   1.0000   1.0000
     1.0000   1.0000   1.0000   1.0000   1.0000   1.0000   1.0000   1.0000
     1.0000   1.0000   0.0000   0.0000   0.0000   0.0000   0.0000   0.0000
     0.0000   0.0000

          k = 0.0000 0.3849 0.8437 (  3166 PWs)   bands (ev):

   -74.4032 -74.4032 -70.0025 -70.0024 -43.1506 -43.1506 -43.1493 -43.1490
   -43.0826 -43.0825 -38.8064 -38.8064 -38.7828 -38.7827 -38.7805 -38.7802
    -5.5153  -5.3801  -5.2637  -5.2184   2.3517   2.3713   2.7282   2.7980
     3.1737   3.2240   3.3714   3.3787   3.4759   3.5948   4.1756   4.2142
     5.0256   5.0503   5.1459   5.2237   5.4148   5.4664   5.8649   6.0151
     6.4113   6.5603   8.4823   8.5190   8.9138   8.9660   8.9884   9.0350
     9.1412   9.3042

     occupation numbers 
     1.0000   1.0000   1.0000   1.0000   1.0000   1.0000   1.0000   1.0000
     1.0000   1.0000   1.0000   1.0000   1.0000   1.0000   1.0000   1.0000
     1.0000   1.0000   1.0000   1.0000   1.0000   1.0000   1.0000   1.0000
     1.0000   1.0000   1.0000   1.0000   1.0000   1.0000   1.0000   1.0000
     1.0000   1.0000   1.0000   1.0000   1.0000   1.0000   1.0000   1.0000
     1.0000   1.0000   0.0000   0.0000   0.0000   0.0000   0.0000   0.0000
     0.0000   0.0000

          k = 0.0000 0.3849-1.1159 (  3158 PWs)   bands (ev):

   -74.4032 -74.4031 -70.0024 -70.0024 -43.1506 -43.1506 -43.1492 -43.1490
   -43.0825 -43.0825 -38.8064 -38.8064 -38.7828 -38.7827 -38.7805 -38.7802
    -5.4416  -5.4258  -5.3106  -5.1966   2.2367   2.2806   2.5712   2.6125
     3.2883   3.3281   3.3951   3.4492   3.6356   3.7494   4.1650   4.2170
     5.0163   5.0750   5.1338   5.1845   5.4359   5.6031   5.9128   6.0876
     6.4390   6.5902   8.4648   8.5459   8.8822   8.9108   8.9379   9.0852
     9.1130   9.2313

     occupation numbers 
     1.0000   1.0000   1.0000   1.0000   1.0000   1.0000   1.0000   1.0000
     1.0000   1.0000   1.0000   1.0000   1.0000   1.0000   1.0000   1.0000
     1.0000   1.0000   1.0000   1.0000   1.0000   1.0000   1.0000   1.0000
     1.0000   1.0000   1.0000   1.0000   1.0000   1.0000   1.0000   1.0000
     1.0000   1.0000   1.0000   1.0000   1.0000   1.0000   1.0000   1.0000
     1.0000   1.0000   0.0000   0.0000   0.0000   0.0000   0.0000   0.0000
     0.0000   0.0000

          k = 0.0000 0.3849-0.6260 (  3178 PWs)   bands (ev):

   -74.4034 -74.4031 -70.0027 -70.0024 -43.1504 -43.1495 -43.1494 -43.1487
   -43.0827 -43.0825 -38.8067 -38.8064 -38.7825 -38.7808 -38.7808 -38.7797
    -5.7120  -5.5585  -5.4230  -5.2208   2.5152   2.5228   2.7160   2.8331
     3.0683   3.2564   3.3137   3.3515   3.5815   3.9616   4.0682   4.1914
     4.9164   4.9406   5.0855   5.2578   5.4413   5.9350   6.3297   6.4695
     6.5550   7.0591   8.3443   8.5526   8.7919   8.8695   9.0133   9.1919
     9.2419   9.7492

     occupation numbers 
     1.0000   1.0000   1.0000   1.0000   1.0000   1.0000   1.0000   1.0000
     1.0000   1.0000   1.0000   1.0000   1.0000   1.0000   1.0000   1.0000
     1.0000   1.0000   1.0000   1.0000   1.0000   1.0000   1.0000   1.0000
     1.0000   1.0000   1.0000   1.0000   1.0000   1.0000   1.0000   1.0000
     1.0000   1.0000   1.0000   1.0000   1.0000   1.0000   1.0000   1.0000
     1.0000   1.0000   0.0000   0.0000   0.0000   0.0000   0.0000   0.0000
     0.0000   0.0000

          k = 0.3333 0.1925-0.2722 (  3186 PWs)   bands (ev):

   -74.4034 -74.4033 -70.0027 -70.0025 -43.1502 -43.1491 -43.1489 -43.1486
   -43.0827 -43.0826 -38.8067 -38.8065 -38.7821 -38.7804 -38.7801 -38.7797
    -5.9187  -5.5052  -5.4198  -5.3838   2.3052   2.4770   2.6099   2.8798
     3.2312   3.3401   3.3553   3.3668   3.7961   3.8702   4.1744   4.1961
     4.9805   5.0541   5.0963   5.1239   5.8751   6.2895   6.2967   6.7241
     6.8286   7.1189   8.4474   8.5965   8.8381   8.8824   9.0401   9.4606
     9.6154   9.8431

     occupation numbers 
     1.0000   1.0000   1.0000   1.0000   1.0000   1.0000   1.0000   1.0000
     1.0000   1.0000   1.0000   1.0000   1.0000   1.0000   1.0000   1.0000
     1.0000   1.0000   1.0000   1.0000   1.0000   1.0000   1.0000   1.0000
     1.0000   1.0000   1.0000   1.0000   1.0000   1.0000   1.0000   1.0000
     1.0000   1.0000   1.0000   1.0000   1.0000   1.0000   1.0000   1.0000
     1.0000   1.0000   0.0000   0.0000   0.0000   0.0000   0.0000   0.0000
     0.0000   0.0000

          k = 0.3333 0.1925 0.2177 (  3178 PWs)   bands (ev):

   -74.4034 -74.4032 -70.0026 -70.0024 -43.1506 -43.1494 -43.1492 -43.1487
   -43.0827 -43.0825 -38.8067 -38.8064 -38.7826 -38.7809 -38.7805 -38.7797
    -5.9446  -5.3776  -5.3354  -5.2210   2.3110   2.4158   2.5658   2.9130
     3.2206   3.2420   3.3634   3.5466   3.7500   3.7923   3.9180   4.1603
     4.8571   5.0564   5.1616   5.2279   5.6144   5.9938   6.1714   6.3057
     6.7480   7.0794   8.3313   8.6446   8.6509   8.7851   9.0486   9.3021
     9.5418   9.6083

     occupation numbers 
     1.0000   1.0000   1.0000   1.0000   1.0000   1.0000   1.0000   1.0000
     1.0000   1.0000   1.0000   1.0000   1.0000   1.0000   1.0000   1.0000
     1.0000   1.0000   1.0000   1.0000   1.0000   1.0000   1.0000   1.0000
     1.0000   1.0000   1.0000   1.0000   1.0000   1.0000   1.0000   1.0000
     1.0000   1.0000   1.0000   1.0000   1.0000   1.0000   1.0000   1.0000
     1.0000   1.0000   0.0000   0.0000   0.0000   0.0000   0.0000   0.0000
     0.0000   0.0000

          k = 0.3333 0.1925 0.7076 (  3164 PWs)   bands (ev):

   -74.4032 -74.4031 -70.0025 -70.0024 -43.1504 -43.1502 -43.1498 -43.1492
   -43.0825 -43.0825 -38.8064 -38.8063 -38.7825 -38.7821 -38.7814 -38.7804
    -5.6220  -5.3429  -5.2091  -5.1982   2.5592   2.6223   2.8075   2.8466
     2.9567   3.1719   3.2496   3.3750   3.5126   3.6085   3.9644   4.1039
     4.7646   4.9928   5.1470   5.2492   5.5743   5.6451   5.7437   6.0922
     6.1505   6.5933   8.2430   8.5113   8.7522   8.8730   9.0742   9.1144
     9.1728   9.3049

     occupation numbers 
     1.0000   1.0000   1.0000   1.0000   1.0000   1.0000   1.0000   1.0000
     1.0000   1.0000   1.0000   1.0000   1.0000   1.0000   1.0000   1.0000
     1.0000   1.0000   1.0000   1.0000   1.0000   1.0000   1.0000   1.0000
     1.0000   1.0000   1.0000   1.0000   1.0000   1.0000   1.0000   1.0000
     1.0000   1.0000   1.0000   1.0000   1.0000   1.0000   1.0000   1.0000
     1.0000   1.0000   0.0000   0.0000   0.0000   0.0000   0.0000   0.0000
     0.0000   0.0000

          k = 0.3333 0.1925-1.2520 (  3156 PWs)   bands (ev):

   -74.4032 -74.4032 -70.0024 -70.0024 -43.1507 -43.1504 -43.1494 -43.1490
   -43.0825 -43.0825 -38.8064 -38.8063 -38.7828 -38.7824 -38.7808 -38.7802
    -5.5709  -5.3790  -5.2114  -5.2048   2.2711   2.2755   2.5514   2.6085
     3.2379   3.3447   3.4603   3.5190   3.7166   3.7497   4.0022   4.1756
     4.8931   4.9693   5.1433   5.2182   5.5673   5.6250   5.9334   6.1667
     6.3231   6.6203   8.3933   8.4326   8.6406   8.8700   9.0758   9.0830
     9.2466   9.4585

     occupation numbers 
     1.0000   1.0000   1.0000   1.0000   1.0000   1.0000   1.0000   1.0000
     1.0000   1.0000   1.0000   1.0000   1.0000   1.0000   1.0000   1.0000
     1.0000   1.0000   1.0000   1.0000   1.0000   1.0000   1.0000   1.0000
     1.0000   1.0000   1.0000   1.0000   1.0000   1.0000   1.0000   1.0000
     1.0000   1.0000   1.0000   1.0000   1.0000   1.0000   1.0000   1.0000
     1.0000   1.0000   0.0000   0.0000   0.0000   0.0000   0.0000   0.0000
     0.0000   0.0000

          k = 0.3333 0.1925-0.7621 (  3171 PWs)   bands (ev):

   -74.4033 -74.4033 -70.0025 -70.0025 -43.1501 -43.1498 -43.1490 -43.1490
   -43.0826 -43.0826 -38.8065 -38.8065 -38.7818 -38.7815 -38.7802 -38.7801
    -5.6539  -5.5787  -5.3448  -5.3423   2.4058   2.4274   2.6465   2.6830
     3.2709   3.2742   3.4369   3.4567   3.7864   3.7924   4.0843   4.1178
     4.9164   4.9397   5.1305   5.1523   5.9155   5.9961   6.3125   6.3700
     6.6530   6.7548   8.4133   8.4647   8.7528   8.7531   9.1694   9.2357
     9.5261   9.6329

     occupation numbers 
     1.0000   1.0000   1.0000   1.0000   1.0000   1.0000   1.0000   1.0000
     1.0000   1.0000   1.0000   1.0000   1.0000   1.0000   1.0000   1.0000
     1.0000   1.0000   1.0000   1.0000   1.0000   1.0000   1.0000   1.0000
     1.0000   1.0000   1.0000   1.0000   1.0000   1.0000   1.0000   1.0000
     1.0000   1.0000   1.0000   1.0000   1.0000   1.0000   1.0000   1.0000
     1.0000   1.0000   0.0000   0.0000   0.0000   0.0000   0.0000   0.0000
     0.0000   0.0000

          k = 0.3333-0.5774 0.0000 (  3195 PWs)   bands (ev):

   -74.4035 -74.4033 -70.0027 -70.0025 -43.1503 -43.1492 -43.1489 -43.1486
   -43.0827 -43.0826 -38.8067 -38.8065 -38.7822 -38.7804 -38.7801 -38.7797
    -5.7680  -5.6367  -5.5883  -5.2446   2.5018   2.5446   2.7648   2.9240
     3.0993   3.2294   3.3222   3.3437   3.4726   4.0193   4.1911   4.1982
     4.9753   5.0055   5.0910   5.1402   5.6083   6.2394   6.4811   6.6834
     6.7404   7.1378   8.5019   8.6452   8.8103   8.9246   9.1478   9.2876
     9.5447   9.7167

     occupation numbers 
     1.0000   1.0000   1.0000   1.0000   1.0000   1.0000   1.0000   1.0000
     1.0000   1.0000   1.0000   1.0000   1.0000   1.0000   1.0000   1.0000
     1.0000   1.0000   1.0000   1.0000   1.0000   1.0000   1.0000   1.0000
     1.0000   1.0000   1.0000   1.0000   1.0000   1.0000   1.0000   1.0000
     1.0000   1.0000   1.0000   1.0000   1.0000   1.0000   1.0000   1.0000
     1.0000   1.0000   0.0000   0.0000   0.0000   0.0000   0.0000   0.0000
     0.0000   0.0000

          k = 0.3333-0.5774 0.4899 (  3179 PWs)   bands (ev):

   -74.4035 -74.4031 -70.0027 -70.0024 -43.1506 -43.1494 -43.1493 -43.1487
   -43.0827 -43.0825 -38.8067 -38.8064 -38.7826 -38.7809 -38.7806 -38.7797
    -5.7573  -5.5502  -5.3710  -5.2315   2.4988   2.5179   2.7512   2.8294
     3.0483   3.2433   3.3040   3.3421   3.6008   3.9839   4.0553   4.1885
     4.8850   4.9511   5.0931   5.2583   5.4776   5.9088   6.2467   6.4589
     6.6432   7.0941   8.3139   8.6026   8.7814   8.8416   9.0118   9.1821
     9.2774   9.6809

     occupation numbers 
     1.0000   1.0000   1.0000   1.0000   1.0000   1.0000   1.0000   1.0000
     1.0000   1.0000   1.0000   1.0000   1.0000   1.0000   1.0000   1.0000
     1.0000   1.0000   1.0000   1.0000   1.0000   1.0000   1.0000   1.0000
     1.0000   1.0000   1.0000   1.0000   1.0000   1.0000   1.0000   1.0000
     1.0000   1.0000   1.0000   1.0000   1.0000   1.0000   1.0000   1.0000
     1.0000   1.0000   0.0000   0.0000   0.0000   0.0000   0.0000   0.0000
     0.0000   0.0000

          k = 0.3333-0.5774 0.9798 (  3173 PWs)   bands (ev):

   -74.4032 -74.4032 -70.0025 -70.0025 -43.1505 -43.1502 -43.1499 -43.1491
   -43.0826 -43.0825 -38.8065 -38.8064 -38.7825 -38.7820 -38.7814 -38.7804
    -5.5478  -5.3260  -5.2899  -5.2155   2.4571   2.5811   2.7023   2.8223
     2.9791   3.2118   3.2746   3.4425   3.6117   3.6342   3.9587   4.0985
     4.7506   4.9459   5.1737   5.2377   5.6144   5.7089   5.8917   6.0586
     6.2058   6.5645   8.2175   8.4194   8.7248   8.8143   9.0641   9.1183
     9.2002   9.3978

     occupation numbers 
     1.0000   1.0000   1.0000   1.0000   1.0000   1.0000   1.0000   1.0000
     1.0000   1.0000   1.0000   1.0000   1.0000   1.0000   1.0000   1.0000
     1.0000   1.0000   1.0000   1.0000   1.0000   1.0000   1.0000   1.0000
     1.0000   1.0000   1.0000   1.0000   1.0000   1.0000   1.0000   1.0000
     1.0000   1.0000   1.0000   1.0000   1.0000   1.0000   1.0000   1.0000
     1.0000   1.0000   0.0000   0.0000   0.0000   0.0000   0.0000   0.0000
     0.0000   0.0000

          k =-0.3333 0.1925 0.1361 (  3185 PWs)   bands (ev):

   -74.4034 -74.4033 -70.0026 -70.0025 -43.1503 -43.1492 -43.1490 -43.1485
   -43.0827 -43.0826 -38.8067 -38.8065 -38.7822 -38.7804 -38.7801 -38.7796
    -5.9695  -5.6290  -5.3572  -5.2495   2.2732   2.3855   2.6229   2.9475
     3.2307   3.3559   3.3572   3.4205   3.7645   3.8646   4.1678   4.1898
     4.9405   5.0686   5.1232   5.1673   5.7541   6.2519   6.2953   6.7236
     6.8222   7.1371   8.4259   8.6756   8.7819   8.8236   9.0838   9.6046
     9.6180   9.9033

     occupation numbers 
     1.0000   1.0000   1.0000   1.0000   1.0000   1.0000   1.0000   1.0000
     1.0000   1.0000   1.0000   1.0000   1.0000   1.0000   1.0000   1.0000
     1.0000   1.0000   1.0000   1.0000   1.0000   1.0000   1.0000   1.0000
     1.0000   1.0000   1.0000   1.0000   1.0000   1.0000   1.0000   1.0000
     1.0000   1.0000   1.0000   1.0000   1.0000   1.0000   1.0000   1.0000
     1.0000   1.0000   0.0000   0.0000   0.0000   0.0000   0.0000   0.0000
     0.0000   0.0000

          k =-0.3333 0.1925-0.3538 (  3165 PWs)   bands (ev):

   -74.4034 -74.4031 -70.0026 -70.0024 -43.1505 -43.1494 -43.1492 -43.1487
   -43.0827 -43.0825 -38.8067 -38.8063 -38.7825 -38.7809 -38.7805 -38.7797
    -5.8752  -5.4187  -5.4122  -5.1870   2.4563   2.5202   2.7375   2.8264
     3.1212   3.2410   3.3488   3.4115   3.6014   3.8301   4.0346   4.1743
     4.8852   5.0389   5.1197   5.2365   5.4992   5.8305   6.2588   6.3265
     6.7528   7.0695   8.3477   8.5804   8.8167   8.8762   9.1025   9.1273
     9.5540   9.7509

     occupation numbers 
     1.0000   1.0000   1.0000   1.0000   1.0000   1.0000   1.0000   1.0000
     1.0000   1.0000   1.0000   1.0000   1.0000   1.0000   1.0000   1.0000
     1.0000   1.0000   1.0000   1.0000   1.0000   1.0000   1.0000   1.0000
     1.0000   1.0000   1.0000   1.0000   1.0000   1.0000   1.0000   1.0000
     1.0000   1.0000   1.0000   1.0000   1.0000   1.0000   1.0000   1.0000
     1.0000   1.0000   0.0000   0.0000   0.0000   0.0000   0.0000   0.0000
     0.0000   0.0000

          k =-0.3333 0.1925-0.8437 (  3166 PWs)   bands (ev):

   -74.4032 -74.4032 -70.0025 -70.0024 -43.1504 -43.1501 -43.1498 -43.1491
   -43.0826 -43.0825 -38.8065 -38.8064 -38.7825 -38.7820 -38.7814 -38.7804
    -5.5214  -5.3352  -5.3167  -5.2041   2.3535   2.4603   2.6099   2.6829
     3.0874   3.2795   3.4775   3.4934   3.5930   3.8042   3.9005   4.0472
     4.7649   4.9092   5.1789   5.2297   5.7130   5.8078   5.8853   6.1275
     6.2567   6.5721   8.2482   8.3725   8.6309   8.7633   9.0971   9.0986
     9.2683   9.4524

     occupation numbers 
     1.0000   1.0000   1.0000   1.0000   1.0000   1.0000   1.0000   1.0000
     1.0000   1.0000   1.0000   1.0000   1.0000   1.0000   1.0000   1.0000
     1.0000   1.0000   1.0000   1.0000   1.0000   1.0000   1.0000   1.0000
     1.0000   1.0000   1.0000   1.0000   1.0000   1.0000   1.0000   1.0000
     1.0000   1.0000   1.0000   1.0000   1.0000   1.0000   1.0000   1.0000
     1.0000   1.0000   0.0000   0.0000   0.0000   0.0000   0.0000   0.0000
     0.0000   0.0000

          k =-0.3333 0.1925 1.1159 (  3158 PWs)   bands (ev):

   -74.4032 -74.4031 -70.0025 -70.0024 -43.1506 -43.1503 -43.1494 -43.1490
   -43.0826 -43.0825 -38.8065 -38.8063 -38.7827 -38.7824 -38.7808 -38.7802
    -5.4616  -5.3898  -5.3292  -5.1939   2.2388   2.3009   2.5455   2.5825
     3.2206   3.3496   3.4254   3.5106   3.7042   3.8285   4.0276   4.1712
     4.9015   4.9749   5.1478   5.2147   5.5522   5.7389   5.8903   6.2378
     6.3282   6.6101   8.3816   8.4361   8.6991   8.8116   9.0015   9.0944
     9.2084   9.3661

     occupation numbers 
     1.0000   1.0000   1.0000   1.0000   1.0000   1.0000   1.0000   1.0000
     1.0000   1.0000   1.0000   1.0000   1.0000   1.0000   1.0000   1.0000
     1.0000   1.0000   1.0000   1.0000   1.0000   1.0000   1.0000   1.0000
     1.0000   1.0000   1.0000   1.0000   1.0000   1.0000   1.0000   1.0000
     1.0000   1.0000   1.0000   1.0000   1.0000   1.0000   1.0000   1.0000
     1.0000   1.0000   0.0000   0.0000   0.0000   0.0000   0.0000   0.0000
     0.0000   0.0000

          k =-0.3333 0.1925 0.6260 (  3178 PWs)   bands (ev):

   -74.4033 -74.4033 -70.0026 -70.0025 -43.1501 -43.1499 -43.1490 -43.1490
   -43.0827 -43.0826 -38.8066 -38.8065 -38.7819 -38.7816 -38.7802 -38.7801
    -5.6862  -5.6198  -5.3830  -5.2250   2.4730   2.6171   2.6737   2.7751
     3.2076   3.2617   3.3707   3.4196   3.4984   3.7542   4.1115   4.1252
     4.9354   5.0155   5.1253   5.1402   5.6616   6.0065   6.2000   6.3830
     6.6710   6.7334   8.4614   8.5568   8.7552   8.8509   9.1805   9.2250
     9.3931   9.5902

     occupation numbers 
     1.0000   1.0000   1.0000   1.0000   1.0000   1.0000   1.0000   1.0000
     1.0000   1.0000   1.0000   1.0000   1.0000   1.0000   1.0000   1.0000
     1.0000   1.0000   1.0000   1.0000   1.0000   1.0000   1.0000   1.0000
     1.0000   1.0000   1.0000   1.0000   1.0000   1.0000   1.0000   1.0000
     1.0000   1.0000   1.0000   1.0000   1.0000   1.0000   1.0000   1.0000
     1.0000   1.0000   0.0000   0.0000   0.0000   0.0000   0.0000   0.0000
     0.0000   0.0000

          k = 0.3333-0.5774-0.4899 (  3179 PWs)   bands (ev):

   -74.4033 -74.4033 -70.0025 -70.0025 -43.1501 -43.1498 -43.1490 -43.1490
   -43.0826 -43.0826 -38.8065 -38.8065 -38.7818 -38.7816 -38.7803 -38.7801
    -5.7447  -5.5959  -5.3247  -5.2441   2.4582   2.6403   2.6792   2.7476
     3.2441   3.2471   3.3779   3.4409   3.4872   3.6974   4.1020   4.1275
     4.9333   5.0290   5.1429   5.1450   5.7577   5.8509   6.2941   6.3298
     6.6497   6.7393   8.4361   8.5772   8.7711   8.8433   9.1799   9.2596
     9.4996   9.5143

     occupation numbers 
     1.0000   1.0000   1.0000   1.0000   1.0000   1.0000   1.0000   1.0000
     1.0000   1.0000   1.0000   1.0000   1.0000   1.0000   1.0000   1.0000
     1.0000   1.0000   1.0000   1.0000   1.0000   1.0000   1.0000   1.0000
     1.0000   1.0000   1.0000   1.0000   1.0000   1.0000   1.0000   1.0000
     1.0000   1.0000   1.0000   1.0000   1.0000   1.0000   1.0000   1.0000
     1.0000   1.0000   0.0000   0.0000   0.0000   0.0000   0.0000   0.0000
     0.0000   0.0000

          k = 0.3333-0.5774-0.9798 (  3173 PWs)   bands (ev):

   -74.4033 -74.4032 -70.0025 -70.0024 -43.1507 -43.1504 -43.1493 -43.1491
   -43.0826 -43.0825 -38.8065 -38.8064 -38.7828 -38.7825 -38.7808 -38.7803
    -5.5458  -5.3511  -5.2440  -5.2385   2.4548   2.4883   2.8689   2.9610
     3.0059   3.0598   3.2281   3.3591   3.5094   3.5903   4.1048   4.1852
     4.9172   5.0116   5.1446   5.2395   5.4543   5.5121   5.7956   6.0856
     6.2631   6.5802   8.3449   8.4946   8.8743   8.9348   9.0077   9.0659
     9.1295   9.2997

     occupation numbers 
     1.0000   1.0000   1.0000   1.0000   1.0000   1.0000   1.0000   1.0000
     1.0000   1.0000   1.0000   1.0000   1.0000   1.0000   1.0000   1.0000
     1.0000   1.0000   1.0000   1.0000   1.0000   1.0000   1.0000   1.0000
     1.0000   1.0000   1.0000   1.0000   1.0000   1.0000   1.0000   1.0000
     1.0000   1.0000   1.0000   1.0000   1.0000   1.0000   1.0000   1.0000
     1.0000   1.0000   0.0000   0.0000   0.0000   0.0000   0.0000   0.0000
     0.0000   0.0000

 ------ SPIN DOWN ----------


          k = 0.0000 0.0000 0.0000 (  3203 PWs)   bands (ev):

   -74.4036 -74.4032 -70.0028 -70.0024 -43.1509 -43.1490 -43.1487 -43.1485
   -43.0830 -43.0825 -38.8070 -38.8064 -38.7831 -38.7803 -38.7796 -38.7795
    -6.1273  -5.4426  -5.4061  -5.1887   2.0545   2.1899   2.3578   3.1491
     3.1496   3.3109   3.4118   3.5004   3.9003   4.1574   4.1579   4.2325
     5.1187   5.1619   5.1678   5.1687   5.3653   6.1614   6.4751   6.5023
     7.3639   7.3642   8.4413   8.7640   8.7835   8.7839   8.9611   9.2873
     9.3939   9.6392

     occupation numbers 
     1.0000   1.0000   1.0000   1.0000   1.0000   1.0000   1.0000   1.0000
     1.0000   1.0000   1.0000   1.0000   1.0000   1.0000   1.0000   1.0000
     1.0000   1.0000   1.0000   1.0000   1.0000   1.0000   1.0000   1.0000
     1.0000   1.0000   1.0000   1.0000   1.0000   1.0000   1.0000   1.0000
     1.0000   1.0000   1.0000   1.0000   1.0000   1.0000   1.0000   1.0000
     1.0000   1.0000   0.0000   0.0000   0.0000   0.0000   0.0000   0.0000
     0.0000   0.0000

          k = 0.0000 0.0000 0.4899 (  3184 PWs)   bands (ev):

   -74.4034 -74.4032 -70.0027 -70.0024 -43.1504 -43.1495 -43.1494 -43.1487
   -43.0827 -43.0826 -38.8066 -38.8064 -38.7825 -38.7809 -38.7808 -38.7798
    -5.9075  -5.3874  -5.3381  -5.2548   2.3191   2.4234   2.5752   2.8785
     3.2294   3.2514   3.3595   3.5242   3.7660   3.7839   3.9345   4.1619
     4.8720   5.0296   5.1510   5.2375   5.6079   6.0989   6.1395   6.3143
     6.6780   7.0451   8.3461   8.6320   8.6943   8.7641   9.0011   9.3140
     9.4587   9.6509

     occupation numbers 
     1.0000   1.0000   1.0000   1.0000   1.0000   1.0000   1.0000   1.0000
     1.0000   1.0000   1.0000   1.0000   1.0000   1.0000   1.0000   1.0000
     1.0000   1.0000   1.0000   1.0000   1.0000   1.0000   1.0000   1.0000
     1.0000   1.0000   1.0000   1.0000   1.0000   1.0000   1.0000   1.0000
     1.0000   1.0000   1.0000   1.0000   1.0000   1.0000   1.0000   1.0000
     1.0000   1.0000   0.0000   0.0000   0.0000   0.0000   0.0000   0.0000
     0.0000   0.0000

          k = 0.0000 0.0000 0.9798 (  3151 PWs)   bands (ev):

   -74.4032 -74.4031 -70.0024 -70.0024 -43.1506 -43.1506 -43.1492 -43.1489
   -43.0825 -43.0824 -38.8064 -38.8063 -38.7828 -38.7827 -38.7804 -38.7802
    -5.5149  -5.4253  -5.2125  -5.2097   2.1455   2.1457   2.4364   2.4695
     3.3584   3.3945   3.4769   3.5091   3.8540   3.8844   4.1123   4.2176
     5.0000   5.0005   5.1370   5.1910   5.5249   5.5972   6.1107   6.2043
     6.4719   6.5943   8.3874   8.4262   8.6895   8.9156   8.9693   9.0464
     9.3167   9.4110

     occupation numbers 
     1.0000   1.0000   1.0000   1.0000   1.0000   1.0000   1.0000   1.0000
     1.0000   1.0000   1.0000   1.0000   1.0000   1.0000   1.0000   1.0000
     1.0000   1.0000   1.0000   1.0000   1.0000   1.0000   1.0000   1.0000
     1.0000   1.0000   1.0000   1.0000   1.0000   1.0000   1.0000   1.0000
     1.0000   1.0000   1.0000   1.0000   1.0000   1.0000   1.0000   1.0000
     1.0000   1.0000   0.0000   0.0000   0.0000   0.0000   0.0000   0.0000
     0.0000   0.0000

          k = 0.0000 0.3849-0.1361 (  3185 PWs)   bands (ev):

   -74.4035 -74.4032 -70.0027 -70.0024 -43.1508 -43.1490 -43.1486 -43.1484
   -43.0829 -43.0825 -38.8069 -38.8064 -38.7830 -38.7803 -38.7795 -38.7794
    -5.9726  -5.5935  -5.3996  -5.2406   2.2410   2.4340   2.5940   3.1030
     3.1635   3.1639   3.3344   3.4092   3.6143   4.2001   4.2007   4.2358
     5.0965   5.0974   5.1417   5.1937   5.3522   5.8557   6.4942   6.4975
     7.3408   7.3413   8.5877   8.8910   8.8913   8.9400   9.0354   9.0487
     9.4157   9.5132

     occupation numbers 
     1.0000   1.0000   1.0000   1.0000   1.0000   1.0000   1.0000   1.0000
     1.0000   1.0000   1.0000   1.0000   1.0000   1.0000   1.0000   1.0000
     1.0000   1.0000   1.0000   1.0000   1.0000   1.0000   1.0000   1.0000
     1.0000   1.0000   1.0000   1.0000   1.0000   1.0000   1.0000   1.0000
     1.0000   1.0000   1.0000   1.0000   1.0000   1.0000   1.0000   1.0000
     1.0000   1.0000   0.0000   0.0000   0.0000   0.0000   0.0000   0.0000
     0.0000   0.0000

          k = 0.0000 0.3849 0.3538 (  3165 PWs)   bands (ev):

   -74.4034 -74.4031 -70.0026 -70.0024 -43.1504 -43.1494 -43.1493 -43.1487
   -43.0827 -43.0824 -38.8066 -38.8063 -38.7824 -38.7808 -38.7807 -38.7797
    -5.8747  -5.4520  -5.3779  -5.1883   2.4506   2.5387   2.7209   2.8102
     3.1549   3.2565   3.3589   3.4537   3.5839   3.7388   4.0416   4.1722
     4.9078   5.0454   5.1315   5.2281   5.4825   5.9033   6.1585   6.3908
     6.7076   7.0385   8.3588   8.5642   8.8396   8.8825   9.0782   9.1824
     9.5497   9.8012

     occupation numbers 
     1.0000   1.0000   1.0000   1.0000   1.0000   1.0000   1.0000   1.0000
     1.0000   1.0000   1.0000   1.0000   1.0000   1.0000   1.0000   1.0000
     1.0000   1.0000   1.0000   1.0000   1.0000   1.0000   1.0000   1.0000
     1.0000   1.0000   1.0000   1.0000   1.0000   1.0000   1.0000   1.0000
     1.0000   1.0000   1.0000   1.0000   1.0000   1.0000   1.0000   1.0000
     1.0000   1.0000   0.0000   0.0000   0.0000   0.0000   0.0000   0.0000
     0.0000   0.0000

          k = 0.0000 0.3849 0.8437 (  3166 PWs)   bands (ev):

   -74.4032 -74.4032 -70.0025 -70.0024 -43.1506 -43.1506 -43.1493 -43.1490
   -43.0825 -43.0825 -38.8064 -38.8064 -38.7828 -38.7827 -38.7805 -38.7802
    -5.5153  -5.3801  -5.2638  -5.2184   2.3518   2.3714   2.7282   2.7980
     3.1737   3.2240   3.3714   3.3787   3.4759   3.5948   4.1756   4.2142
     5.0256   5.0503   5.1459   5.2237   5.4148   5.4664   5.8649   6.0151
     6.4113   6.5604   8.4823   8.5190   8.9138   8.9660   8.9884   9.0350
     9.1411   9.3042

     occupation numbers 
     1.0000   1.0000   1.0000   1.0000   1.0000   1.0000   1.0000   1.0000
     1.0000   1.0000   1.0000   1.0000   1.0000   1.0000   1.0000   1.0000
     1.0000   1.0000   1.0000   1.0000   1.0000   1.0000   1.0000   1.0000
     1.0000   1.0000   1.0000   1.0000   1.0000   1.0000   1.0000   1.0000
     1.0000   1.0000   1.0000   1.0000   1.0000   1.0000   1.0000   1.0000
     1.0000   1.0000   0.0000   0.0000   0.0000   0.0000   0.0000   0.0000
     0.0000   0.0000

          k = 0.0000 0.3849-1.1159 (  3158 PWs)   bands (ev):

   -74.4032 -74.4031 -70.0024 -70.0024 -43.1506 -43.1506 -43.1492 -43.1490
   -43.0825 -43.0825 -38.8064 -38.8064 -38.7828 -38.7827 -38.7805 -38.7802
    -5.4416  -5.4258  -5.3106  -5.1966   2.2367   2.2806   2.5712   2.6124
     3.2883   3.3281   3.3951   3.4492   3.6356   3.7494   4.1649   4.2170
     5.0163   5.0750   5.1338   5.1845   5.4359   5.6031   5.9128   6.0876
     6.4390   6.5902   8.4647   8.5459   8.8822   8.9108   8.9379   9.0851
     9.1130   9.2313

     occupation numbers 
     1.0000   1.0000   1.0000   1.0000   1.0000   1.0000   1.0000   1.0000
     1.0000   1.0000   1.0000   1.0000   1.0000   1.0000   1.0000   1.0000
     1.0000   1.0000   1.0000   1.0000   1.0000   1.0000   1.0000   1.0000
     1.0000   1.0000   1.0000   1.0000   1.0000   1.0000   1.0000   1.0000
     1.0000   1.0000   1.0000   1.0000   1.0000   1.0000   1.0000   1.0000
     1.0000   1.0000   0.0000   0.0000   0.0000   0.0000   0.0000   0.0000
     0.0000   0.0000

          k = 0.0000 0.3849-0.6260 (  3178 PWs)   bands (ev):

   -74.4034 -74.4031 -70.0027 -70.0024 -43.1504 -43.1495 -43.1494 -43.1486
   -43.0827 -43.0825 -38.8067 -38.8064 -38.7825 -38.7808 -38.7808 -38.7797
    -5.7120  -5.5585  -5.4230  -5.2208   2.5153   2.5228   2.7161   2.8331
     3.0683   3.2564   3.3137   3.3515   3.5815   3.9616   4.0682   4.1913
     4.9164   4.9406   5.0855   5.2578   5.4413   5.9350   6.3297   6.4695
     6.5550   7.0591   8.3443   8.5526   8.7919   8.8695   9.0132   9.1919
     9.2419   9.7494

     occupation numbers 
     1.0000   1.0000   1.0000   1.0000   1.0000   1.0000   1.0000   1.0000
     1.0000   1.0000   1.0000   1.0000   1.0000   1.0000   1.0000   1.0000
     1.0000   1.0000   1.0000   1.0000   1.0000   1.0000   1.0000   1.0000
     1.0000   1.0000   1.0000   1.0000   1.0000   1.0000   1.0000   1.0000
     1.0000   1.0000   1.0000   1.0000   1.0000   1.0000   1.0000   1.0000
     1.0000   1.0000   0.0000   0.0000   0.0000   0.0000   0.0000   0.0000
     0.0000   0.0000

          k = 0.3333 0.1925-0.2722 (  3186 PWs)   bands (ev):

   -74.4034 -74.4033 -70.0027 -70.0025 -43.1502 -43.1491 -43.1489 -43.1486
   -43.0827 -43.0826 -38.8067 -38.8065 -38.7821 -38.7804 -38.7801 -38.7797
    -5.9187  -5.5052  -5.4198  -5.3838   2.3052   2.4770   2.6099   2.8798
     3.2313   3.3401   3.3553   3.3668   3.7961   3.8701   4.1743   4.1960
     4.9805   5.0541   5.0963   5.1239   5.8751   6.2895   6.2967   6.7241
     6.8286   7.1189   8.4474   8.5965   8.8381   8.8824   9.0401   9.4606
     9.6155   9.8431

     occupation numbers 
     1.0000   1.0000   1.0000   1.0000   1.0000   1.0000   1.0000   1.0000
     1.0000   1.0000   1.0000   1.0000   1.0000   1.0000   1.0000   1.0000
     1.0000   1.0000   1.0000   1.0000   1.0000   1.0000   1.0000   1.0000
     1.0000   1.0000   1.0000   1.0000   1.0000   1.0000   1.0000   1.0000
     1.0000   1.0000   1.0000   1.0000   1.0000   1.0000   1.0000   1.0000
     1.0000   1.0000   0.0000   0.0000   0.0000   0.0000   0.0000   0.0000
     0.0000   0.0000

          k = 0.3333 0.1925 0.2177 (  3178 PWs)   bands (ev):

   -74.4034 -74.4032 -70.0026 -70.0024 -43.1506 -43.1494 -43.1492 -43.1487
   -43.0827 -43.0825 -38.8067 -38.8064 -38.7826 -38.7809 -38.7805 -38.7797
    -5.9446  -5.3775  -5.3354  -5.2210   2.3110   2.4158   2.5658   2.9130
     3.2206   3.2420   3.3634   3.5466   3.7500   3.7922   3.9180   4.1603
     4.8571   5.0564   5.1616   5.2279   5.6144   5.9938   6.1714   6.3057
     6.7480   7.0794   8.3313   8.6446   8.6509   8.7851   9.0486   9.3021
     9.5418   9.6083

     occupation numbers 
     1.0000   1.0000   1.0000   1.0000   1.0000   1.0000   1.0000   1.0000
     1.0000   1.0000   1.0000   1.0000   1.0000   1.0000   1.0000   1.0000
     1.0000   1.0000   1.0000   1.0000   1.0000   1.0000   1.0000   1.0000
     1.0000   1.0000   1.0000   1.0000   1.0000   1.0000   1.0000   1.0000
     1.0000   1.0000   1.0000   1.0000   1.0000   1.0000   1.0000   1.0000
     1.0000   1.0000   0.0000   0.0000   0.0000   0.0000   0.0000   0.0000
     0.0000   0.0000

          k = 0.3333 0.1925 0.7076 (  3164 PWs)   bands (ev):

   -74.4032 -74.4031 -70.0025 -70.0024 -43.1504 -43.1502 -43.1498 -43.1492
   -43.0825 -43.0825 -38.8064 -38.8063 -38.7825 -38.7821 -38.7814 -38.7804
    -5.6220  -5.3429  -5.2091  -5.1982   2.5592   2.6224   2.8075   2.8466
     2.9567   3.1719   3.2496   3.3750   3.5127   3.6085   3.9644   4.1039
     4.7646   4.9928   5.1470   5.2492   5.5743   5.6452   5.7437   6.0922
     6.1505   6.5933   8.2430   8.5113   8.7522   8.8730   9.0742   9.1144
     9.1727   9.3049

     occupation numbers 
     1.0000   1.0000   1.0000   1.0000   1.0000   1.0000   1.0000   1.0000
     1.0000   1.0000   1.0000   1.0000   1.0000   1.0000   1.0000   1.0000
     1.0000   1.0000   1.0000   1.0000   1.0000   1.0000   1.0000   1.0000
     1.0000   1.0000   1.0000   1.0000   1.0000   1.0000   1.0000   1.0000
     1.0000   1.0000   1.0000   1.0000   1.0000   1.0000   1.0000   1.0000
     1.0000   1.0000   0.0000   0.0000   0.0000   0.0000   0.0000   0.0000
     0.0000   0.0000

          k = 0.3333 0.1925-1.2520 (  3156 PWs)   bands (ev):

   -74.4032 -74.4032 -70.0024 -70.0024 -43.1507 -43.1504 -43.1493 -43.1490
   -43.0825 -43.0825 -38.8064 -38.8063 -38.7828 -38.7824 -38.7808 -38.7802
    -5.5709  -5.3790  -5.2114  -5.2048   2.2711   2.2755   2.5514   2.6084
     3.2380   3.3448   3.4603   3.5190   3.7166   3.7497   4.0021   4.1756
     4.8931   4.9694   5.1433   5.2182   5.5673   5.6250   5.9334   6.1667
     6.3231   6.6203   8.3933   8.4326   8.6406   8.8700   9.0758   9.0830
     9.2466   9.4585

     occupation numbers 
     1.0000   1.0000   1.0000   1.0000   1.0000   1.0000   1.0000   1.0000
     1.0000   1.0000   1.0000   1.0000   1.0000   1.0000   1.0000   1.0000
     1.0000   1.0000   1.0000   1.0000   1.0000   1.0000   1.0000   1.0000
     1.0000   1.0000   1.0000   1.0000   1.0000   1.0000   1.0000   1.0000
     1.0000   1.0000   1.0000   1.0000   1.0000   1.0000   1.0000   1.0000
     1.0000   1.0000   0.0000   0.0000   0.0000   0.0000   0.0000   0.0000
     0.0000   0.0000

          k = 0.3333 0.1925-0.7621 (  3171 PWs)   bands (ev):

   -74.4033 -74.4033 -70.0025 -70.0025 -43.1501 -43.1498 -43.1490 -43.1490
   -43.0826 -43.0826 -38.8065 -38.8065 -38.7818 -38.7815 -38.7802 -38.7801
    -5.6539  -5.5786  -5.3448  -5.3423   2.4058   2.4274   2.6465   2.6830
     3.2709   3.2742   3.4369   3.4567   3.7863   3.7924   4.0843   4.1178
     4.9164   4.9397   5.1305   5.1523   5.9155   5.9961   6.3125   6.3700
     6.6530   6.7548   8.4133   8.4647   8.7528   8.7531   9.1694   9.2357
     9.5261   9.6329

     occupation numbers 
     1.0000   1.0000   1.0000   1.0000   1.0000   1.0000   1.0000   1.0000
     1.0000   1.0000   1.0000   1.0000   1.0000   1.0000   1.0000   1.0000
     1.0000   1.0000   1.0000   1.0000   1.0000   1.0000   1.0000   1.0000
     1.0000   1.0000   1.0000   1.0000   1.0000   1.0000   1.0000   1.0000
     1.0000   1.0000   1.0000   1.0000   1.0000   1.0000   1.0000   1.0000
     1.0000   1.0000   0.0000   0.0000   0.0000   0.0000   0.0000   0.0000
     0.0000   0.0000

          k = 0.3333-0.5774 0.0000 (  3195 PWs)   bands (ev):

   -74.4035 -74.4033 -70.0027 -70.0025 -43.1503 -43.1492 -43.1489 -43.1486
   -43.0827 -43.0826 -38.8067 -38.8065 -38.7822 -38.7804 -38.7801 -38.7797
    -5.7679  -5.6367  -5.5883  -5.2447   2.5018   2.5446   2.7648   2.9240
     3.0993   3.2294   3.3222   3.3437   3.4726   4.0192   4.1911   4.1982
     4.9753   5.0055   5.0910   5.1402   5.6083   6.2394   6.4811   6.6834
     6.7404   7.1378   8.5018   8.6452   8.8103   8.9246   9.1478   9.2876
     9.5447   9.7167

     occupation numbers 
     1.0000   1.0000   1.0000   1.0000   1.0000   1.0000   1.0000   1.0000
     1.0000   1.0000   1.0000   1.0000   1.0000   1.0000   1.0000   1.0000
     1.0000   1.0000   1.0000   1.0000   1.0000   1.0000   1.0000   1.0000
     1.0000   1.0000   1.0000   1.0000   1.0000   1.0000   1.0000   1.0000
     1.0000   1.0000   1.0000   1.0000   1.0000   1.0000   1.0000   1.0000
     1.0000   1.0000   0.0000   0.0000   0.0000   0.0000   0.0000   0.0000
     0.0000   0.0000

          k = 0.3333-0.5774 0.4899 (  3179 PWs)   bands (ev):

   -74.4035 -74.4031 -70.0027 -70.0024 -43.1506 -43.1494 -43.1493 -43.1487
   -43.0827 -43.0825 -38.8067 -38.8064 -38.7826 -38.7809 -38.7806 -38.7797
    -5.7573  -5.5502  -5.3709  -5.2315   2.4989   2.5179   2.7512   2.8293
     3.0483   3.2434   3.3040   3.3421   3.6008   3.9839   4.0553   4.1884
     4.8850   4.9511   5.0931   5.2583   5.4776   5.9088   6.2467   6.4589
     6.6432   7.0941   8.3139   8.6026   8.7814   8.8416   9.0118   9.1821
     9.2774   9.6809

     occupation numbers 
     1.0000   1.0000   1.0000   1.0000   1.0000   1.0000   1.0000   1.0000
     1.0000   1.0000   1.0000   1.0000   1.0000   1.0000   1.0000   1.0000
     1.0000   1.0000   1.0000   1.0000   1.0000   1.0000   1.0000   1.0000
     1.0000   1.0000   1.0000   1.0000   1.0000   1.0000   1.0000   1.0000
     1.0000   1.0000   1.0000   1.0000   1.0000   1.0000   1.0000   1.0000
     1.0000   1.0000   0.0000   0.0000   0.0000   0.0000   0.0000   0.0000
     0.0000   0.0000

          k = 0.3333-0.5774 0.9798 (  3173 PWs)   bands (ev):

   -74.4032 -74.4032 -70.0025 -70.0025 -43.1505 -43.1502 -43.1499 -43.1491
   -43.0826 -43.0825 -38.8065 -38.8064 -38.7825 -38.7820 -38.7814 -38.7804
    -5.5478  -5.3260  -5.2899  -5.2156   2.4572   2.5811   2.7022   2.8223
     2.9792   3.2118   3.2746   3.4425   3.6117   3.6342   3.9587   4.0984
     4.7506   4.9459   5.1737   5.2377   5.6144   5.7089   5.8917   6.0586
     6.2058   6.5645   8.2175   8.4194   8.7248   8.8143   9.0641   9.1183
     9.2002   9.3978

     occupation numbers 
     1.0000   1.0000   1.0000   1.0000   1.0000   1.0000   1.0000   1.0000
     1.0000   1.0000   1.0000   1.0000   1.0000   1.0000   1.0000   1.0000
     1.0000   1.0000   1.0000   1.0000   1.0000   1.0000   1.0000   1.0000
     1.0000   1.0000   1.0000   1.0000   1.0000   1.0000   1.0000   1.0000
     1.0000   1.0000   1.0000   1.0000   1.0000   1.0000   1.0000   1.0000
     1.0000   1.0000   0.0000   0.0000   0.0000   0.0000   0.0000   0.0000
     0.0000   0.0000

          k =-0.3333 0.1925 0.1361 (  3185 PWs)   bands (ev):

   -74.4034 -74.4033 -70.0026 -70.0025 -43.1503 -43.1492 -43.1490 -43.1485
   -43.0827 -43.0826 -38.8067 -38.8065 -38.7822 -38.7804 -38.7801 -38.7796
    -5.9695  -5.6290  -5.3572  -5.2495   2.2732   2.3855   2.6229   2.9475
     3.2307   3.3560   3.3572   3.4205   3.7645   3.8645   4.1677   4.1898
     4.9405   5.0686   5.1232   5.1673   5.7541   6.2519   6.2953   6.7236
     6.8222   7.1371   8.4259   8.6756   8.7819   8.8236   9.0838   9.6046
     9.6180   9.9033

     occupation numbers 
     1.0000   1.0000   1.0000   1.0000   1.0000   1.0000   1.0000   1.0000
     1.0000   1.0000   1.0000   1.0000   1.0000   1.0000   1.0000   1.0000
     1.0000   1.0000   1.0000   1.0000   1.0000   1.0000   1.0000   1.0000
     1.0000   1.0000   1.0000   1.0000   1.0000   1.0000   1.0000   1.0000
     1.0000   1.0000   1.0000   1.0000   1.0000   1.0000   1.0000   1.0000
     1.0000   1.0000   0.0000   0.0000   0.0000   0.0000   0.0000   0.0000
     0.0000   0.0000

          k =-0.3333 0.1925-0.3538 (  3165 PWs)   bands (ev):

   -74.4034 -74.4031 -70.0026 -70.0024 -43.1505 -43.1494 -43.1492 -43.1487
   -43.0827 -43.0824 -38.8067 -38.8063 -38.7825 -38.7809 -38.7805 -38.7797
    -5.8752  -5.4187  -5.4122  -5.1870   2.4563   2.5202   2.7375   2.8265
     3.1212   3.2410   3.3488   3.4115   3.6014   3.8301   4.0345   4.1743
     4.8852   5.0389   5.1197   5.2365   5.4993   5.8305   6.2588   6.3265
     6.7528   7.0695   8.3477   8.5803   8.8167   8.8762   9.1025   9.1273
     9.5540   9.7509

     occupation numbers 
     1.0000   1.0000   1.0000   1.0000   1.0000   1.0000   1.0000   1.0000
     1.0000   1.0000   1.0000   1.0000   1.0000   1.0000   1.0000   1.0000
     1.0000   1.0000   1.0000   1.0000   1.0000   1.0000   1.0000   1.0000
     1.0000   1.0000   1.0000   1.0000   1.0000   1.0000   1.0000   1.0000
     1.0000   1.0000   1.0000   1.0000   1.0000   1.0000   1.0000   1.0000
     1.0000   1.0000   0.0000   0.0000   0.0000   0.0000   0.0000   0.0000
     0.0000   0.0000

          k =-0.3333 0.1925-0.8437 (  3166 PWs)   bands (ev):

   -74.4032 -74.4032 -70.0025 -70.0024 -43.1504 -43.1501 -43.1498 -43.1491
   -43.0826 -43.0825 -38.8065 -38.8064 -38.7825 -38.7820 -38.7814 -38.7804
    -5.5213  -5.3352  -5.3167  -5.2041   2.3535   2.4603   2.6099   2.6829
     3.0874   3.2795   3.4775   3.4934   3.5930   3.8042   3.9005   4.0472
     4.7649   4.9092   5.1789   5.2297   5.7130   5.8078   5.8853   6.1276
     6.2567   6.5721   8.2482   8.3725   8.6309   8.7633   9.0971   9.0986
     9.2683   9.4524

     occupation numbers 
     1.0000   1.0000   1.0000   1.0000   1.0000   1.0000   1.0000   1.0000
     1.0000   1.0000   1.0000   1.0000   1.0000   1.0000   1.0000   1.0000
     1.0000   1.0000   1.0000   1.0000   1.0000   1.0000   1.0000   1.0000
     1.0000   1.0000   1.0000   1.0000   1.0000   1.0000   1.0000   1.0000
     1.0000   1.0000   1.0000   1.0000   1.0000   1.0000   1.0000   1.0000
     1.0000   1.0000   0.0000   0.0000   0.0000   0.0000   0.0000   0.0000
     0.0000   0.0000

          k =-0.3333 0.1925 1.1159 (  3158 PWs)   bands (ev):

   -74.4032 -74.4031 -70.0025 -70.0024 -43.1506 -43.1503 -43.1494 -43.1490
   -43.0826 -43.0824 -38.8065 -38.8063 -38.7827 -38.7824 -38.7808 -38.7802
    -5.4616  -5.3898  -5.3292  -5.1940   2.2389   2.3009   2.5455   2.5825
     3.2207   3.3496   3.4254   3.5106   3.7042   3.8285   4.0276   4.1712
     4.9015   4.9749   5.1478   5.2147   5.5522   5.7389   5.8903   6.2378
     6.3282   6.6101   8.3815   8.4361   8.6991   8.8116   9.0015   9.0943
     9.2084   9.3661

     occupation numbers 
     1.0000   1.0000   1.0000   1.0000   1.0000   1.0000   1.0000   1.0000
     1.0000   1.0000   1.0000   1.0000   1.0000   1.0000   1.0000   1.0000
     1.0000   1.0000   1.0000   1.0000   1.0000   1.0000   1.0000   1.0000
     1.0000   1.0000   1.0000   1.0000   1.0000   1.0000   1.0000   1.0000
     1.0000   1.0000   1.0000   1.0000   1.0000   1.0000   1.0000   1.0000
     1.0000   1.0000   0.0000   0.0000   0.0000   0.0000   0.0000   0.0000
     0.0000   0.0000

          k =-0.3333 0.1925 0.6260 (  3178 PWs)   bands (ev):

   -74.4033 -74.4033 -70.0026 -70.0025 -43.1501 -43.1499 -43.1490 -43.1490
   -43.0827 -43.0826 -38.8066 -38.8065 -38.7819 -38.7816 -38.7802 -38.7801
    -5.6862  -5.6198  -5.3830  -5.2250   2.4731   2.6171   2.6737   2.7752
     3.2076   3.2617   3.3707   3.4196   3.4985   3.7542   4.1115   4.1252
     4.9354   5.0155   5.1253   5.1402   5.6616   6.0065   6.2000   6.3830
     6.6710   6.7334   8.4614   8.5568   8.7552   8.8509   9.1805   9.2250
     9.3930   9.5902

     occupation numbers 
     1.0000   1.0000   1.0000   1.0000   1.0000   1.0000   1.0000   1.0000
     1.0000   1.0000   1.0000   1.0000   1.0000   1.0000   1.0000   1.0000
     1.0000   1.0000   1.0000   1.0000   1.0000   1.0000   1.0000   1.0000
     1.0000   1.0000   1.0000   1.0000   1.0000   1.0000   1.0000   1.0000
     1.0000   1.0000   1.0000   1.0000   1.0000   1.0000   1.0000   1.0000
     1.0000   1.0000   0.0000   0.0000   0.0000   0.0000   0.0000   0.0000
     0.0000   0.0000

          k = 0.3333-0.5774-0.4899 (  3179 PWs)   bands (ev):

   -74.4033 -74.4033 -70.0025 -70.0025 -43.1501 -43.1498 -43.1490 -43.1490
   -43.0826 -43.0826 -38.8065 -38.8065 -38.7818 -38.7816 -38.7803 -38.7801
    -5.7447  -5.5959  -5.3247  -5.2441   2.4583   2.6403   2.6792   2.7476
     3.2442   3.2471   3.3779   3.4409   3.4872   3.6974   4.1020   4.1274
     4.9333   5.0290   5.1429   5.1450   5.7577   5.8509   6.2941   6.3298
     6.6497   6.7393   8.4361   8.5772   8.7711   8.8433   9.1799   9.2596
     9.4996   9.5143

     occupation numbers 
     1.0000   1.0000   1.0000   1.0000   1.0000   1.0000   1.0000   1.0000
     1.0000   1.0000   1.0000   1.0000   1.0000   1.0000   1.0000   1.0000
     1.0000   1.0000   1.0000   1.0000   1.0000   1.0000   1.0000   1.0000
     1.0000   1.0000   1.0000   1.0000   1.0000   1.0000   1.0000   1.0000
     1.0000   1.0000   1.0000   1.0000   1.0000   1.0000   1.0000   1.0000
     1.0000   1.0000   0.0000   0.0000   0.0000   0.0000   0.0000   0.0000
     0.0000   0.0000

          k = 0.3333-0.5774-0.9798 (  3173 PWs)   bands (ev):

   -74.4033 -74.4031 -70.0025 -70.0024 -43.1507 -43.1504 -43.1493 -43.1491
   -43.0826 -43.0825 -38.8065 -38.8064 -38.7828 -38.7825 -38.7808 -38.7803
    -5.5458  -5.3511  -5.2440  -5.2386   2.4548   2.4883   2.8689   2.9609
     3.0059   3.0598   3.2281   3.3591   3.5094   3.5903   4.1048   4.1852
     4.9172   5.0116   5.1446   5.2395   5.4543   5.5121   5.7956   6.0857
     6.2631   6.5802   8.3449   8.4946   8.8743   8.9348   9.0077   9.0659
     9.1295   9.2997

     occupation numbers 
     1.0000   1.0000   1.0000   1.0000   1.0000   1.0000   1.0000   1.0000
     1.0000   1.0000   1.0000   1.0000   1.0000   1.0000   1.0000   1.0000
     1.0000   1.0000   1.0000   1.0000   1.0000   1.0000   1.0000   1.0000
     1.0000   1.0000   1.0000   1.0000   1.0000   1.0000   1.0000   1.0000
     1.0000   1.0000   1.0000   1.0000   1.0000   1.0000   1.0000   1.0000
     1.0000   1.0000   0.0000   0.0000   0.0000   0.0000   0.0000   0.0000
     0.0000   0.0000

     the Fermi energy is     7.7916 ev

!    total energy              =   -1411.11697824 Ry
     total all-electron energy =    -12462.550593 Ry
     estimated scf accuracy    <          2.8E-11 Ry
     smearing contrib. (-TS)   =      -0.00000004 Ry
     internal energy E=F+TS    =   -1411.11697820 Ry

     The total energy is F=E-TS. E is the sum of the following terms:
     one-electron contribution =    -609.32812219 Ry
     hartree contribution      =     338.52459739 Ry
     xc contribution           =    -132.35786107 Ry
     ewald contribution        =    -512.93048737 Ry
     one-center paw contrib.   =    -495.02510496 Ry
      -> PAW hartree energy AE =     525.80749414 Ry
      -> PAW hartree energy PS =    -528.69242893 Ry
      -> PAW xc energy AE      =    -313.53636597 Ry
      -> PAW xc energy PS      =      83.55843604 Ry
      -> total E_H with PAW    =     335.63966260 Ry
      -> total E_XC with PAW   =    -362.33579100 Ry

     total magnetization       =    -0.00 Bohr mag/cell
     absolute magnetization    =    17.94 Bohr mag/cell

     convergence has been achieved in  16 iterations

     Forces acting on atoms (cartesian axes, Ry/au):

     atom    1 type  1   force =    -0.00000833   -0.00000205    0.00000447
     atom    2 type  2   force =    -0.00000605    0.00000043    0.00000244
     atom    3 type  3   force =    -0.00000833    0.00000034    0.00000378
     atom    4 type  4   force =    -0.00000973    0.00000078    0.00000455
     atom    5 type  5   force =     0.00000858   -0.00000018   -0.00000405
     atom    6 type  5   force =     0.00000834   -0.00000004   -0.00000385
     atom    7 type  5   force =     0.00000765    0.00000050   -0.00000367
     atom    8 type  5   force =     0.00000786    0.00000023   -0.00000367
     The non-local contrib.  to forces
     atom    1 type  1   force =     0.00025796    0.00306617   -0.00107166
     atom    2 type  2   force =     0.00025868    0.00305887   -0.00106935
     atom    3 type  3   force =     0.00025735    0.00306691   -0.00107142
     atom    4 type  4   force =     0.00025695    0.00305988   -0.00106882
     atom    5 type  5   force =    -0.00009959   -0.00210972    0.00078591
     atom    6 type  5   force =    -0.00009945   -0.00210752    0.00078499
     atom    7 type  5   force =    -0.00009980   -0.00210953    0.00078590
     atom    8 type  5   force =    -0.00009987   -0.00210723    0.00078518
     The ionic contribution  to forces
     atom    1 type  1   force =     0.00143651    0.35337223   -0.12586237
     atom    2 type  2   force =     0.00145848    0.35382007   -0.12603233
     atom    3 type  3   force =     0.00142241    0.35341174   -0.12586667
     atom    4 type  4   force =     0.00140067    0.35382911   -0.12599891
     atom    5 type  5   force =    -0.00143677   -0.35353155    0.12591587
     atom    6 type  5   force =    -0.00143818   -0.35367868    0.12597081
     atom    7 type  5   force =    -0.00142150   -0.35353341    0.12590876
     atom    8 type  5   force =    -0.00142161   -0.35368951    0.12596483
     The local contribution  to forces
     atom    1 type  1   force =    -0.00169479   -0.36056089    0.12839081
     atom    2 type  2   force =    -0.00171873   -0.36099786    0.12855778
     atom    3 type  3   force =    -0.00167941   -0.36060265    0.12839474
     atom    4 type  4   force =    -0.00165633   -0.36100827    0.12852214
     atom    5 type  5   force =     0.00154044    0.35489612   -0.12643871
     atom    6 type  5   force =     0.00154195    0.35504450   -0.12649395
     atom    7 type  5   force =     0.00152203    0.35490067   -0.12643043
     atom    8 type  5   force =     0.00152173    0.35505680   -0.12648630
     The core correction contribution to forces
     atom    1 type  1   force =    -0.00000942    0.00379008   -0.00133418
     atom    2 type  2   force =    -0.00000938    0.00379202   -0.00133490
     atom    3 type  3   force =    -0.00000941    0.00379040   -0.00133430
     atom    4 type  4   force =    -0.00000950    0.00379189   -0.00133471
     atom    5 type  5   force =     0.00000439    0.00041133   -0.00014902
     atom    6 type  5   force =     0.00000439    0.00041133   -0.00014901
     atom    7 type  5   force =     0.00000437    0.00041134   -0.00014901
     atom    8 type  5   force =     0.00000437    0.00041133   -0.00014901
     The Hubbard contrib.    to forces
     atom    1 type  1   force =     0.00000000    0.00000000    0.00000000
     atom    2 type  2   force =     0.00000000    0.00000000    0.00000000
     atom    3 type  3   force =     0.00000000    0.00000000    0.00000000
     atom    4 type  4   force =     0.00000000    0.00000000    0.00000000
     atom    5 type  5   force =     0.00000000    0.00000000    0.00000000
     atom    6 type  5   force =     0.00000000    0.00000000    0.00000000
[...]
     1.0000   1.0000   1.0000   1.0000   1.0000   1.0000   1.0000   1.0000
     1.0000   1.0000   1.0000   1.0000   1.0000   1.0000   1.0000   1.0000
     1.0000   1.0000   1.0000   1.0000   1.0000   1.0000   1.0000   1.0000
     1.0000   1.0000   1.0000   1.0000   1.0000   1.0000   1.0000   1.0000
     1.0000   1.0000   0.5172   0.0000   0.0000   0.0000   0.0000   0.0000
     0.0000   0.0000

          k =-0.3561 0.2086 0.1446 (  2538 PWs)   bands (ev):

   -71.1354 -71.1352 -67.4666 -67.4664 -39.9253 -39.9214 -39.9206 -39.9191
   -39.8064 -39.8059 -36.2979 -36.2972 -36.2660 -36.2603 -36.2602 -36.2587
    -4.2550  -3.7433  -3.3027  -3.1592   4.1462   4.3020   4.4612   5.0554
     5.4414   5.6018   5.6292   5.7232   5.9517   6.0075   6.2937   6.3474
     7.8634   8.0152   8.0881   8.1121   8.8452   9.1779   9.3460   9.8436
    10.0805  10.2993  10.9209  11.2830  11.3390  11.3827  11.8470  12.6881
    12.7051  12.8942

     occupation numbers 
     1.0000   1.0000   1.0000   1.0000   1.0000   1.0000   1.0000   1.0000
     1.0000   1.0000   1.0000   1.0000   1.0000   1.0000   1.0000   1.0000
     1.0000   1.0000   1.0000   1.0000   1.0000   1.0000   1.0000   1.0000
     1.0000   1.0000   1.0000   1.0000   1.0000   1.0000   1.0000   1.0000
     1.0000   1.0000   1.0000   1.0000   1.0000   1.0000   1.0000   1.0000
     0.9999   0.9416   0.0000   0.0000   0.0000   0.0000   0.0000   0.0000
     0.0000   0.0000

          k =-0.3556 0.2124-0.3800 (  2544 PWs)   bands (ev):

   -71.1354 -71.1352 -67.4666 -67.4663 -39.9269 -39.9223 -39.9217 -39.9193
   -39.8063 -39.8056 -36.2978 -36.2968 -36.2675 -36.2630 -36.2616 -36.2582
    -4.1112  -3.4115  -3.4096  -3.0803   4.3431   4.4737   4.5770   4.9062
     5.2594   5.4625   5.5339   5.5388   5.9087   5.9292   6.2488   6.3185
     7.7396   7.9788   8.0310   8.2711   8.4463   8.8168   9.2924   9.5127
    10.0850  10.2315  10.6522  11.0093  11.3516  11.7148  11.7554  11.8715
    12.6912  12.8023

     occupation numbers 
     1.0000   1.0000   1.0000   1.0000   1.0000   1.0000   1.0000   1.0000
     1.0000   1.0000   1.0000   1.0000   1.0000   1.0000   1.0000   1.0000
     1.0000   1.0000   1.0000   1.0000   1.0000   1.0000   1.0000   1.0000
     1.0000   1.0000   1.0000   1.0000   1.0000   1.0000   1.0000   1.0000
     1.0000   1.0000   1.0000   1.0000   1.0000   1.0000   1.0000   1.0000
     0.9999   0.9885   0.0179   0.0000   0.0000   0.0000   0.0000   0.0000
     0.0000   0.0000

          k =-0.3551 0.2161-0.9046 (  2558 PWs)   bands (ev):

   -71.1353 -71.1352 -67.4664 -67.4664 -39.9266 -39.9260 -39.9236 -39.9205
   -39.8058 -39.8055 -36.2972 -36.2968 -36.2678 -36.2663 -36.2637 -36.2606
    -3.5697  -3.2825  -3.2792  -3.1246   4.2351   4.3335   4.4634   4.5187
     5.2004   5.4865   5.5188   5.7487   5.9400   6.0111   6.2059   6.2310
     7.5783   7.8199   8.1510   8.3220   8.6607   8.8612   8.9224   9.3342
     9.3720   9.8669  10.4997  10.7742  11.0543  11.2314  11.7564  11.8408
    12.0893  12.2822

     occupation numbers 
     1.0000   1.0000   1.0000   1.0000   1.0000   1.0000   1.0000   1.0000
     1.0000   1.0000   1.0000   1.0000   1.0000   1.0000   1.0000   1.0000
     1.0000   1.0000   1.0000   1.0000   1.0000   1.0000   1.0000   1.0000
     1.0000   1.0000   1.0000   1.0000   1.0000   1.0000   1.0000   1.0000
     1.0000   1.0000   1.0000   1.0000   1.0000   1.0000   1.0000   1.0000
     1.0000   1.0000   0.3034   0.0004   0.0000   0.0000   0.0000   0.0000
     0.0000   0.0000

          k =-0.3571 0.2011 1.1938 (  2558 PWs)   bands (ev):

   -71.1353 -71.1352 -67.4664 -67.4663 -39.9283 -39.9259 -39.9212 -39.9212
   -39.8058 -39.8056 -36.2972 -36.2968 -36.2686 -36.2676 -36.2621 -36.2600
    -3.4632  -3.3722  -3.3189  -3.0948   4.0912   4.1465   4.3498   4.3776
     5.4036   5.5858   5.7074   5.7776   5.9282   6.1257   6.2600   6.3221
     7.7632   7.8317   8.0989   8.2549   8.5388   8.8212   8.8548   9.3622
     9.5195   9.7505  10.7054  10.9669  11.2036  11.2685  11.6442  11.6847
    12.0033  12.1474

     occupation numbers 
     1.0000   1.0000   1.0000   1.0000   1.0000   1.0000   1.0000   1.0000
     1.0000   1.0000   1.0000   1.0000   1.0000   1.0000   1.0000   1.0000
     1.0000   1.0000   1.0000   1.0000   1.0000   1.0000   1.0000   1.0000
     1.0000   1.0000   1.0000   1.0000   1.0000   1.0000   1.0000   1.0000
     1.0000   1.0000   1.0000   1.0000   1.0000   1.0000   1.0000   1.0000
     1.0000   1.0000   0.0040   0.0000   0.0000   0.0000   0.0000   0.0000
     0.0000   0.0000

          k =-0.3566 0.2049 0.6692 (  2535 PWs)   bands (ev):

   -71.1353 -71.1352 -67.4665 -67.4664 -39.9255 -39.9229 -39.9216 -39.9200
   -39.8060 -39.8059 -36.2974 -36.2973 -36.2650 -36.2645 -36.2606 -36.2598
    -3.8365  -3.7197  -3.3776  -3.1170   4.4031   4.5970   4.5987   4.7208
     5.2913   5.4509   5.5245   5.6426   5.7814   5.9743   6.2660   6.2768
     7.8685   7.9812   8.0636   8.0760   8.5906   9.0971   9.2613   9.5851
     9.9089  10.0078  10.9388  11.0911  11.2868  11.3837  12.0355  12.1881
    12.2093  12.4198

     occupation numbers 
     1.0000   1.0000   1.0000   1.0000   1.0000   1.0000   1.0000   1.0000
     1.0000   1.0000   1.0000   1.0000   1.0000   1.0000   1.0000   1.0000
     1.0000   1.0000   1.0000   1.0000   1.0000   1.0000   1.0000   1.0000
     1.0000   1.0000   1.0000   1.0000   1.0000   1.0000   1.0000   1.0000
     1.0000   1.0000   1.0000   1.0000   1.0000   1.0000   1.0000   1.0000
     1.0000   1.0000   0.0000   0.0000   0.0000   0.0000   0.0000   0.0000
     0.0000   0.0000

          k = 0.3564-0.6253-0.5205 (  2544 PWs)   bands (ev):

   -71.1353 -71.1353 -67.4665 -67.4665 -39.9256 -39.9229 -39.9217 -39.9201
   -39.8060 -39.8059 -36.2974 -36.2973 -36.2650 -36.2645 -36.2607 -36.2599
    -3.9251  -3.6883  -3.2849  -3.1434   4.3788   4.5842   4.6290   4.7158
     5.3371   5.4080   5.5371   5.6607   5.7580   5.9268   6.2597   6.2812
     7.8661   7.9940   8.0767   8.0912   8.6611   8.8980   9.4093   9.4199
     9.9490   9.9845  10.8860  11.0927  11.2724  11.4104  12.0551  12.1792
    12.3258  12.3460

     occupation numbers 
     1.0000   1.0000   1.0000   1.0000   1.0000   1.0000   1.0000   1.0000
     1.0000   1.0000   1.0000   1.0000   1.0000   1.0000   1.0000   1.0000
     1.0000   1.0000   1.0000   1.0000   1.0000   1.0000   1.0000   1.0000
     1.0000   1.0000   1.0000   1.0000   1.0000   1.0000   1.0000   1.0000
     1.0000   1.0000   1.0000   1.0000   1.0000   1.0000   1.0000   1.0000
     1.0000   1.0000   0.0000   0.0000   0.0000   0.0000   0.0000   0.0000
     0.0000   0.0000

          k = 0.3569-0.6215-1.0451 (  2564 PWs)   bands (ev):

   -71.1353 -71.1353 -67.4664 -67.4664 -39.9283 -39.9258 -39.9212 -39.9212
   -39.8059 -39.8057 -36.2972 -36.2970 -36.2686 -36.2676 -36.2622 -36.2600
    -3.6215  -3.2962  -3.1869  -3.1607   4.3867   4.3946   4.7168   4.8121
     5.1278   5.1832   5.3332   5.6028   5.7883   5.8982   6.2845   6.3410
     7.7928   7.9423   8.1112   8.2623   8.4488   8.5036   8.7331   9.1730
     9.4265   9.7373  10.6184  10.9924  11.4657  11.4966  11.7324  11.7799
    11.7935  12.1941

     occupation numbers 
     1.0000   1.0000   1.0000   1.0000   1.0000   1.0000   1.0000   1.0000
     1.0000   1.0000   1.0000   1.0000   1.0000   1.0000   1.0000   1.0000
     1.0000   1.0000   1.0000   1.0000   1.0000   1.0000   1.0000   1.0000
     1.0000   1.0000   1.0000   1.0000   1.0000   1.0000   1.0000   1.0000
     1.0000   1.0000   1.0000   1.0000   1.0000   1.0000   1.0000   1.0000
     1.0000   1.0000   0.0402   0.0000   0.0000   0.0000   0.0000   0.0000
     0.0000   0.0000

     the Fermi energy is    10.4502 ev

!    total energy              =   -1411.02749177 Ry
     total all-electron energy =    -12462.461106 Ry
     estimated scf accuracy    <          2.1E-13 Ry
     smearing contrib. (-TS)   =      -0.00176970 Ry
     internal energy E=F+TS    =   -1411.02572208 Ry

     The total energy is F=E-TS. E is the sum of the following terms:
     one-electron contribution =    -547.23401363 Ry
     hartree contribution      =     315.84067114 Ry
     xc contribution           =    -132.75301412 Ry
     ewald contribution        =    -551.81162366 Ry
     one-center paw contrib.   =    -495.06774181 Ry
      -> PAW hartree energy AE =     538.41635488 Ry
      -> PAW hartree energy PS =    -541.28644904 Ry
      -> PAW xc energy AE      =    -313.97405346 Ry
      -> PAW xc energy PS      =      83.97048148 Ry
      -> total E_H with PAW    =     312.97057698 Ry
      -> total E_XC with PAW   =    -362.75658610 Ry

     total magnetization       =    -0.00 Bohr mag/cell
     absolute magnetization    =    15.07 Bohr mag/cell

     convergence has been achieved in  23 iterations

     Forces acting on atoms (cartesian axes, Ry/au):

     atom    1 type  1   force =     0.00017892    0.00030413   -0.00019123
     atom    2 type  2   force =     0.00018049    0.00030614   -0.00019296
     atom    3 type  3   force =     0.00018165    0.00030468   -0.00019317
     atom    4 type  4   force =     0.00018026    0.00030338   -0.00019177
     atom    5 type  5   force =    -0.00018012   -0.00030552    0.00019248
     atom    6 type  5   force =    -0.00018022   -0.00030376    0.00019194
     atom    7 type  5   force =    -0.00018064   -0.00030512    0.00019267
     atom    8 type  5   force =    -0.00018033   -0.00030391    0.00019205
     The non-local contrib.  to forces
     atom    1 type  1   force =     0.00038706   -0.00891660    0.00375545
     atom    2 type  2   force =     0.00038556   -0.00891999    0.00375749
     atom    3 type  3   force =     0.00038438   -0.00891709    0.00375725
     atom    4 type  4   force =     0.00038582   -0.00891736    0.00375642
     atom    5 type  5   force =     0.00046687   -0.00812262    0.00290006
     atom    6 type  5   force =     0.00046707   -0.00811953    0.00289889
     atom    7 type  5   force =     0.00046700   -0.00812255    0.00289995
     atom    8 type  5   force =     0.00046715   -0.00812003    0.00289900
     The ionic contribution  to forces
     atom    1 type  1   force =     0.00709290    0.69105566   -0.24427827
     atom    2 type  2   force =     0.00721885    0.69119090   -0.24440210
     atom    3 type  3   force =     0.00732826    0.69106672   -0.24442672
     atom    4 type  4   force =     0.00721195    0.69103987   -0.24434467
     atom    5 type  5   force =    -0.00718684   -0.69110931    0.24435357
     atom    6 type  5   force =    -0.00719098   -0.69109091    0.24435160
     atom    7 type  5   force =    -0.00724330   -0.69107467    0.24437598
     atom    8 type  5   force =    -0.00723083   -0.69107826    0.24437062
     The local contribution  to forces
     atom    1 type  1   force =    -0.00735521   -0.68937137    0.24303794
     atom    2 type  2   force =    -0.00747814   -0.68950258    0.24315855
     atom    3 type  3   force =    -0.00758540   -0.68938154    0.24318290
     atom    4 type  4   force =    -0.00747183   -0.68935591    0.24310302
     atom    5 type  5   force =     0.00654589    0.69817894   -0.24679830
     atom    6 type  5   force =     0.00654987    0.69815990   -0.24679602
     atom    7 type  5   force =     0.00660185    0.69814464   -0.24682052
     atom    8 type  5   force =     0.00658945    0.69814751   -0.24681496
     The core correction contribution to forces
     atom    1 type  1   force =     0.00004822    0.00765369   -0.00275177
     atom    2 type  2   force =     0.00004821    0.00765487   -0.00275220
     atom    3 type  3   force =     0.00004835    0.00765369   -0.00275188
     atom    4 type  4   force =     0.00004836    0.00765399   -0.00275194
     atom    5 type  5   force =    -0.00001210    0.00086437   -0.00030807
     atom    6 type  5   force =    -0.00001211    0.00086427   -0.00030804
     atom    7 type  5   force =    -0.00001208    0.00086435   -0.00030808
     atom    8 type  5   force =    -0.00001209    0.00086429   -0.00030805
     The Hubbard contrib.    to forces
     atom    1 type  1   force =     0.00000000    0.00000000    0.00000000
     atom    2 type  2   force =     0.00000000    0.00000000    0.00000000
     atom    3 type  3   force =     0.00000000    0.00000000    0.00000000
     atom    4 type  4   force =     0.00000000    0.00000000    0.00000000
     atom    5 type  5   force =     0.00000000    0.00000000    0.00000000
     atom    6 type  5   force =     0.00000000    0.00000000    0.00000000
     atom    7 type  5   force =     0.00000000    0.00000000    0.00000000
     atom    8 type  5   force =     0.00000000    0.00000000    0.00000000
     The SCF correction term to forces
     atom    1 type  1   force =    -0.00000001   -0.00000008    0.00000003
     atom    2 type  2   force =     0.00000005    0.00000010   -0.00000009
     atom    3 type  3   force =     0.00000010    0.00000008   -0.00000009
     atom    4 type  4   force =    -0.00000000   -0.00000004    0.00000002
     atom    5 type  5   force =     0.00000010    0.00000027   -0.00000016
     atom    6 type  5   force =    -0.00000002   -0.00000033    0.00000013
     atom    7 type  5   force =    -0.00000008    0.00000027   -0.00000004
     atom    8 type  5   force =     0.00000003   -0.00000024    0.00000006

     Total force =     0.001139     Total SCF correction =     0.000001


     Computing stress (Cartesian axis) and pressure

          total   stress  (Ry/bohr**3)                   (kbar)     P=     -343.28
  -0.00228512  -0.00000100   0.00000765         -336.15       -0.15        1.13
  -0.00000100  -0.00241203   0.00004497           -0.15     -354.82        6.62
   0.00000765   0.00004497  -0.00230360            1.13        6.62     -338.87

     kinetic stress (kbar)  19572.91     -1.93      1.49
                               -1.93  19642.15    -24.93
                                1.49    -24.93  19578.84

     local   stress (kbar)   1588.02      4.74    -38.61
                                4.74  -2050.88   1284.78
                              -38.61   1284.78   1160.06

     nonloc. stress (kbar)  -1204.39     -0.35     -0.37
                               -0.35  -1242.76     13.92
                               -0.37     13.92  -1208.60

     hartree stress (kbar)  16411.82     -4.05     11.79
                               -4.05  17669.10   -444.12
                               11.79   -444.12  16560.79

     exc-cor stress (kbar)  -2987.75     -0.00      0.05
                               -0.00  -2981.87     -2.08
                                0.05     -2.08  -2987.11

     corecor stress (kbar)  -3357.97     -0.21      0.36
                               -0.21  -3357.38     -0.18
                                0.36     -0.18  -3357.68

     ewald   stress (kbar) -30358.80      1.65     26.43
                                1.65 -28033.19   -820.78
                               26.43   -820.78 -30085.17

     hubbard stress (kbar)      0.00      0.00      0.00
                                0.00      0.00      0.00
                                0.00      0.00      0.00

     DFT-D   stress (kbar)      0.00      0.00      0.00
                                0.00      0.00      0.00
                                0.00      0.00      0.00

     XDM     stress (kbar)      0.00      0.00      0.00
                                0.00      0.00      0.00
                                0.00      0.00      0.00

     dft-nl  stress (kbar)      0.00      0.00      0.00
                                0.00      0.00      0.00
                                0.00      0.00      0.00

     TS-vdW  stress (kbar)      0.00      0.00      0.00
                                0.00      0.00      0.00
                                0.00      0.00      0.00

     MDB     stress (kbar)      0.00      0.00      0.00
                                0.00      0.00      0.00
                                0.00      0.00      0.00

     3D-RISM stress (kbar)      0.00      0.00      0.00
                                0.00      0.00      0.00
                                0.00      0.00      0.00


     Writing all to output data dir ./temp/mns.save/ :
     XML data file, charge density, pseudopotentials, collected wavefunctions

     init_run     :     11.43s CPU     11.71s WALL (       2 calls)
     electrons    :   2714.94s CPU   2777.52s WALL (       9 calls)
     update_pot   :      6.37s CPU      6.44s WALL (       7 calls)
     forces       :     35.81s CPU     36.10s WALL (       9 calls)
     stress       :    102.81s CPU    103.32s WALL (       9 calls)

     Called by init_run:
     wfcinit      :      8.11s CPU      8.23s WALL (       2 calls)
     wfcinit:atom :      0.04s CPU      0.04s WALL (      92 calls)
     wfcinit:wfcr :      7.77s CPU      7.88s WALL (      92 calls)
     potinit      :      1.81s CPU      1.91s WALL (       2 calls)
     hinit0       :      0.99s CPU      1.03s WALL (       2 calls)

     Called by electrons:
     c_bands      :   2249.57s CPU   2302.34s WALL (     157 calls)
     sum_band     :    293.95s CPU    301.54s WALL (     157 calls)
     v_of_rho     :      5.74s CPU      5.88s WALL (     162 calls)
     v_h          :      0.19s CPU      0.20s WALL (     162 calls)
     v_xc         :      6.16s CPU      6.31s WALL (     180 calls)
     newd         :     43.30s CPU     43.74s WALL (     162 calls)
     PAW_pot      :    136.58s CPU    138.23s WALL (     169 calls)
     mix_rho      :      1.33s CPU      1.37s WALL (     157 calls)

     Called by c_bands:
     init_us_2    :     19.76s CPU     20.19s WALL (   15686 calls)
     cegterg      :   2206.52s CPU   2258.37s WALL (    7222 calls)

     Called by sum_band:
     sum_band:wei :      0.14s CPU      0.15s WALL (     157 calls)
     sum_band:loo :    220.69s CPU    226.96s WALL (     157 calls)
     sum_band:buf :      3.09s CPU      3.14s WALL (    7222 calls)
     sum_band:ini :      9.15s CPU      9.31s WALL (    7222 calls)
     sum_band:cal :    133.63s CPU    136.01s WALL (    7544 calls)
     sum_band:bec :      1.67s CPU      1.70s WALL (    7544 calls)
     addusdens    :     72.50s CPU     73.79s WALL (     157 calls)
                                        0.00s GPU  (     157 calls)
     addusd:skk   :      0.10s CPU      0.10s WALL (     785 calls)
                                        0.00s GPU  (     785 calls)

     Called by *egterg:
     cdiaghg      :    114.92s CPU    116.37s WALL (   34418 calls)
     cegterg:over :    177.86s CPU    180.90s WALL (   27702 calls)
     cegterg:upda :     99.10s CPU    100.46s WALL (   27702 calls)
     cegterg:last :    297.96s CPU    302.35s WALL (   16671 calls)
     h_psi        :   1127.89s CPU   1163.53s WALL (   35016 calls)
     s_psi        :    316.13s CPU    320.71s WALL (   35016 calls)
     g_psi        :      2.43s CPU      2.46s WALL (   27702 calls)

     Called by h_psi:
     h_psi:calbec :    356.06s CPU    364.16s WALL (   35016 calls)
     vloc_psi     :    442.08s CPU    464.80s WALL (   35016 calls)
     add_vuspsi   :    323.77s CPU    328.54s WALL (   35016 calls)

     General routines
     calbec       :    525.43s CPU    536.23s WALL (   44630 calls)
     fft          :      2.32s CPU      2.40s WALL (    4407 calls)
     ffts         :      0.40s CPU      0.41s WALL (     638 calls)
     fftw         :    442.84s CPU    465.64s WALL ( 2332978 calls)
     interpolate  :      0.56s CPU      0.56s WALL (     324 calls)

     Parallel routines

     PAW routines
     PAW_pot      :    136.58s CPU    138.23s WALL (     169 calls)

     PWSCF        :  48m 6.60s CPU  49m10.68s WALL


   This run was terminated on:  13:10: 7  20Jan2025            

=------------------------------------------------------------------------------=
   JOB DONE.
=------------------------------------------------------------------------------=
