 INFO
nunit      1    1    1
unit   cell
celltype   primcell
shape   parapipedal
 END_INFO
 DIM-GROUP
           3           1
 PRIMVEC
    7.2182226010    0.0624568860    0.0477777180
    3.6631957400    6.3453911400    0.0066979570
    1.8330806540    1.0598656560    2.9923828060
 CONVVEC
    7.2182226010    0.0624568860    0.0477777180
    3.6631957400    6.3453911400    0.0066979570
    1.8330806540    1.0598656560    2.9923828060
 PRIMCOORD
           8           1
 25      5.4424053630     3.2064437970     2.2705503750     0.0003540400     0.0000035300    -0.0001921200
 25      7.2740037090     6.3791372520     2.2739008320     0.0003539600     0.0000044200    -0.0001923900
 25      9.0515141380     3.2376729400     2.2944418580     0.0003549900     0.0000031000    -0.0001926300
 25     10.8831126290     6.4103655110     2.2977924000     0.0003546400     0.0000036200    -0.0001925900
 16      5.5092106990     7.3966570730     2.9932538560    -0.0003541900    -0.0000040600     0.0001924400
 16      3.6776119520     4.2239607190     2.9899047820    -0.0003540500    -0.0000035600     0.0001922000
 16      9.1183205890     7.4278843870     3.0171449080    -0.0003546500    -0.0000037100     0.0001925800
 16      7.2867219800     4.2551890370     3.0137953230    -0.0003547500    -0.0000033300     0.0001925000
 CONVCOORD
           8           1
 25      5.4424053630     3.2064437970     2.2705503750
 25      7.2740037090     6.3791372520     2.2739008320
 25      9.0515141380     3.2376729400     2.2944418580
 25     10.8831126290     6.4103655110     2.2977924000
 16      5.5092106990     7.3966570730     2.9932538560
 16      3.6776119520     4.2239607190     2.9899047820
 16      9.1183205890     7.4278843870     3.0171449080
 16      7.2867219800     4.2551890370     3.0137953230
 RECIP-PRIMVEC
    0.1396124048   -0.0805381074   -0.0569984642

   -0.0010022349    0.1582317980   -0.0554298303

   -0.0022268706    0.0009317315    0.3352159761

 RECIP-CONVVEC
    0.1396124048   -0.0805381074   -0.0569984642

   -0.0010022349    0.1582317980   -0.0554298303

   -0.0022268706    0.0009317315    0.3352159761

 WIGNER-SEITZ-PRIMCELL
           4
  0.1789065E+01 -0.3149618E+01 -0.2225737E+01   0.4921219E+00 -0.2850260E+00 -0.8225426E+00
  0.1762200E+01  0.1091891E+01 -0.3711570E+01   0.4921219E+00 -0.2850260E+00 -0.8225426E+00
  0.1762996E+01  0.1092343E+01 -0.3711251E+01   0.4921219E+00 -0.2850260E+00 -0.8225426E+00
  0.1789861E+01 -0.3149165E+01 -0.2225418E+01   0.4921219E+00 -0.2850260E+00 -0.8225426E+00
           6
 -0.6448080E-01 -0.4188566E+01 -0.7223044E+00  -0.5000537E+00 -0.2891251E+00 -0.8163045E+00
 -0.3595281E+01 -0.2151756E+01  0.7191875E+00  -0.5000537E+00 -0.2891251E+00 -0.8163045E+00
 -0.3622146E+01  0.2089752E+01 -0.7666458E+00  -0.5000537E+00 -0.2891251E+00 -0.8163045E+00
 -0.1768600E+01  0.3128701E+01 -0.2270078E+01  -0.5000537E+00 -0.2891251E+00 -0.8163045E+00
  0.1762200E+01  0.1091891E+01 -0.3711570E+01  -0.5000537E+00 -0.2891251E+00 -0.8163045E+00
  0.1789065E+01 -0.3149618E+01 -0.2225737E+01  -0.5000537E+00 -0.2891251E+00 -0.8163045E+00
           6
  0.1765634E+01  0.1096959E+01 -0.3707989E+01  -0.4050903E-03  0.5772161E+00 -0.8165913E+00
  0.1762996E+01  0.1092343E+01 -0.3711251E+01  -0.4050903E-03  0.5772161E+00 -0.8165913E+00
  0.1762200E+01  0.1091891E+01 -0.3711570E+01  -0.4050903E-03  0.5772161E+00 -0.8165913E+00
 -0.1768600E+01  0.3128701E+01 -0.2270078E+01  -0.4050903E-03  0.5772161E+00 -0.8165913E+00
 -0.1765961E+01  0.3133317E+01 -0.2266817E+01  -0.4050903E-03  0.5772161E+00 -0.8165913E+00
 -0.1765165E+01  0.3133769E+01 -0.2266497E+01  -0.4050903E-03  0.5772161E+00 -0.8165913E+00
           6
  0.1765961E+01 -0.3133317E+01  0.2266817E+01   0.4924485E+00 -0.8703230E+00  0.5690440E-02
  0.1765165E+01 -0.3133769E+01  0.2266497E+01   0.4924485E+00 -0.8703230E+00  0.5690440E-02
 -0.6448080E-01 -0.4188566E+01 -0.7223044E+00   0.4924485E+00 -0.8703230E+00  0.5690440E-02
  0.1789065E+01 -0.3149618E+01 -0.2225737E+01   0.4924485E+00 -0.8703230E+00  0.5690440E-02
  0.1789861E+01 -0.3149165E+01 -0.2225418E+01   0.4924485E+00 -0.8703230E+00  0.5690440E-02
  0.3619508E+01 -0.2094368E+01  0.7633842E+00   0.4924485E+00 -0.8703230E+00  0.5690440E-02
           6
  0.1789861E+01 -0.3149165E+01 -0.2225418E+01   0.8660373E+00 -0.1604030E+00 -0.4735507E+00
  0.1762996E+01  0.1092343E+01 -0.3711251E+01   0.8660373E+00 -0.1604030E+00 -0.4735507E+00
  0.1765634E+01  0.1096959E+01 -0.3707989E+01   0.8660373E+00 -0.1604030E+00 -0.4735507E+00
  0.3595281E+01  0.2151756E+01 -0.7191875E+00   0.8660373E+00 -0.1604030E+00 -0.4735507E+00
  0.3622146E+01 -0.2089752E+01  0.7666458E+00   0.8660373E+00 -0.1604030E+00 -0.4735507E+00
  0.3619508E+01 -0.2094368E+01  0.7633842E+00   0.8660373E+00 -0.1604030E+00 -0.4735507E+00
           4
 -0.3619508E+01  0.2094368E+01 -0.7633842E+00  -0.6656854E+00  0.6452953E+00 -0.3747757E+00
 -0.1765961E+01  0.3133317E+01 -0.2266817E+01  -0.6656854E+00  0.6452953E+00 -0.3747757E+00
 -0.1768600E+01  0.3128701E+01 -0.2270078E+01  -0.6656854E+00  0.6452953E+00 -0.3747757E+00
 -0.3622146E+01  0.2089752E+01 -0.7666458E+00  -0.6656854E+00  0.6452953E+00 -0.3747757E+00
           6
 -0.1765634E+01 -0.1096959E+01  0.3707989E+01  -0.8660373E+00  0.1604030E+00  0.4735507E+00
 -0.1762996E+01 -0.1092343E+01  0.3711251E+01  -0.8660373E+00  0.1604030E+00  0.4735507E+00
 -0.1789861E+01  0.3149165E+01  0.2225418E+01  -0.8660373E+00  0.1604030E+00  0.4735507E+00
 -0.3619508E+01  0.2094368E+01 -0.7633842E+00  -0.8660373E+00  0.1604030E+00  0.4735507E+00
 -0.3622146E+01  0.2089752E+01 -0.7666458E+00  -0.8660373E+00  0.1604030E+00  0.4735507E+00
 -0.3595281E+01 -0.2151756E+01  0.7191875E+00  -0.8660373E+00  0.1604030E+00  0.4735507E+00
           4
 -0.3595281E+01 -0.2151756E+01  0.7191875E+00  -0.2886444E+00 -0.8336292E+00  0.4709000E+00
 -0.6448080E-01 -0.4188566E+01 -0.7223044E+00  -0.2886444E+00 -0.8336292E+00  0.4709000E+00
  0.1765165E+01 -0.3133769E+01  0.2266497E+01  -0.2886444E+00 -0.8336292E+00  0.4709000E+00
 -0.1765634E+01 -0.1096959E+01  0.3707989E+01  -0.2886444E+00 -0.8336292E+00  0.4709000E+00
           6
  0.6448080E-01  0.4188566E+01  0.7223044E+00  -0.4924485E+00  0.8703230E+00 -0.5690440E-02
 -0.1765165E+01  0.3133769E+01 -0.2266497E+01  -0.4924485E+00  0.8703230E+00 -0.5690440E-02
 -0.1765961E+01  0.3133317E+01 -0.2266817E+01  -0.4924485E+00  0.8703230E+00 -0.5690440E-02
 -0.3619508E+01  0.2094368E+01 -0.7633842E+00  -0.4924485E+00  0.8703230E+00 -0.5690440E-02
 -0.1789861E+01  0.3149165E+01  0.2225418E+01  -0.4924485E+00  0.8703230E+00 -0.5690440E-02
 -0.1789065E+01  0.3149618E+01  0.2225737E+01  -0.4924485E+00  0.8703230E+00 -0.5690440E-02
           4
  0.6448080E-01  0.4188566E+01  0.7223044E+00   0.2886444E+00  0.8336292E+00 -0.4709000E+00
  0.3595281E+01  0.2151756E+01 -0.7191875E+00   0.2886444E+00  0.8336292E+00 -0.4709000E+00
  0.1765634E+01  0.1096959E+01 -0.3707989E+01   0.2886444E+00  0.8336292E+00 -0.4709000E+00
 -0.1765165E+01  0.3133769E+01 -0.2266497E+01   0.2886444E+00  0.8336292E+00 -0.4709000E+00
           6
 -0.1762200E+01 -0.1091891E+01  0.3711570E+01   0.4050903E-03 -0.5772161E+00  0.8165913E+00
 -0.1762996E+01 -0.1092343E+01  0.3711251E+01   0.4050903E-03 -0.5772161E+00  0.8165913E+00
 -0.1765634E+01 -0.1096959E+01  0.3707989E+01   0.4050903E-03 -0.5772161E+00  0.8165913E+00
  0.1765165E+01 -0.3133769E+01  0.2266497E+01   0.4050903E-03 -0.5772161E+00  0.8165913E+00
  0.1765961E+01 -0.3133317E+01  0.2266817E+01   0.4050903E-03 -0.5772161E+00  0.8165913E+00
  0.1768600E+01 -0.3128701E+01  0.2270078E+01   0.4050903E-03 -0.5772161E+00  0.8165913E+00
           4
  0.1765961E+01 -0.3133317E+01  0.2266817E+01   0.6656854E+00 -0.6452953E+00  0.3747757E+00
  0.3619508E+01 -0.2094368E+01  0.7633842E+00   0.6656854E+00 -0.6452953E+00  0.3747757E+00
  0.3622146E+01 -0.2089752E+01  0.7666458E+00   0.6656854E+00 -0.6452953E+00  0.3747757E+00
  0.1768600E+01 -0.3128701E+01  0.2270078E+01   0.6656854E+00 -0.6452953E+00  0.3747757E+00
           6
  0.3622146E+01 -0.2089752E+01  0.7666458E+00   0.5000537E+00  0.2891251E+00  0.8163045E+00
  0.3595281E+01  0.2151756E+01 -0.7191875E+00   0.5000537E+00  0.2891251E+00  0.8163045E+00
  0.6448080E-01  0.4188566E+01  0.7223044E+00   0.5000537E+00  0.2891251E+00  0.8163045E+00
 -0.1789065E+01  0.3149618E+01  0.2225737E+01   0.5000537E+00  0.2891251E+00  0.8163045E+00
 -0.1762200E+01 -0.1091891E+01  0.3711570E+01   0.5000537E+00  0.2891251E+00  0.8163045E+00
  0.1768600E+01 -0.3128701E+01  0.2270078E+01   0.5000537E+00  0.2891251E+00  0.8163045E+00
           4
 -0.1762200E+01 -0.1091891E+01  0.3711570E+01  -0.4921219E+00  0.2850260E+00  0.8225426E+00
 -0.1789065E+01  0.3149618E+01  0.2225737E+01  -0.4921219E+00  0.2850260E+00  0.8225426E+00
 -0.1789861E+01  0.3149165E+01  0.2225418E+01  -0.4921219E+00  0.2850260E+00  0.8225426E+00
 -0.1762996E+01 -0.1092343E+01  0.3711251E+01  -0.4921219E+00  0.2850260E+00  0.8225426E+00
 WIGNER-SEITZ-PRIMCELL_END
 WIGNER-SEITZ-CONVCELL
           4
  0.1789065E+01 -0.3149618E+01 -0.2225737E+01   0.4921219E+00 -0.2850260E+00 -0.8225426E+00
  0.1762200E+01  0.1091891E+01 -0.3711570E+01   0.4921219E+00 -0.2850260E+00 -0.8225426E+00
  0.1762996E+01  0.1092343E+01 -0.3711251E+01   0.4921219E+00 -0.2850260E+00 -0.8225426E+00
  0.1789861E+01 -0.3149165E+01 -0.2225418E+01   0.4921219E+00 -0.2850260E+00 -0.8225426E+00
           6
 -0.6448080E-01 -0.4188566E+01 -0.7223044E+00  -0.5000537E+00 -0.2891251E+00 -0.8163045E+00
 -0.3595281E+01 -0.2151756E+01  0.7191875E+00  -0.5000537E+00 -0.2891251E+00 -0.8163045E+00
 -0.3622146E+01  0.2089752E+01 -0.7666458E+00  -0.5000537E+00 -0.2891251E+00 -0.8163045E+00
 -0.1768600E+01  0.3128701E+01 -0.2270078E+01  -0.5000537E+00 -0.2891251E+00 -0.8163045E+00
  0.1762200E+01  0.1091891E+01 -0.3711570E+01  -0.5000537E+00 -0.2891251E+00 -0.8163045E+00
  0.1789065E+01 -0.3149618E+01 -0.2225737E+01  -0.5000537E+00 -0.2891251E+00 -0.8163045E+00
           6
  0.1765634E+01  0.1096959E+01 -0.3707989E+01  -0.4050903E-03  0.5772161E+00 -0.8165913E+00
  0.1762996E+01  0.1092343E+01 -0.3711251E+01  -0.4050903E-03  0.5772161E+00 -0.8165913E+00
  0.1762200E+01  0.1091891E+01 -0.3711570E+01  -0.4050903E-03  0.5772161E+00 -0.8165913E+00
 -0.1768600E+01  0.3128701E+01 -0.2270078E+01  -0.4050903E-03  0.5772161E+00 -0.8165913E+00
 -0.1765961E+01  0.3133317E+01 -0.2266817E+01  -0.4050903E-03  0.5772161E+00 -0.8165913E+00
 -0.1765165E+01  0.3133769E+01 -0.2266497E+01  -0.4050903E-03  0.5772161E+00 -0.8165913E+00
           6
  0.1765961E+01 -0.3133317E+01  0.2266817E+01   0.4924485E+00 -0.8703230E+00  0.5690440E-02
  0.1765165E+01 -0.3133769E+01  0.2266497E+01   0.4924485E+00 -0.8703230E+00  0.5690440E-02
 -0.6448080E-01 -0.4188566E+01 -0.7223044E+00   0.4924485E+00 -0.8703230E+00  0.5690440E-02
  0.1789065E+01 -0.3149618E+01 -0.2225737E+01   0.4924485E+00 -0.8703230E+00  0.5690440E-02
  0.1789861E+01 -0.3149165E+01 -0.2225418E+01   0.4924485E+00 -0.8703230E+00  0.5690440E-02
  0.3619508E+01 -0.2094368E+01  0.7633842E+00   0.4924485E+00 -0.8703230E+00  0.5690440E-02
           6
  0.1789861E+01 -0.3149165E+01 -0.2225418E+01   0.8660373E+00 -0.1604030E+00 -0.4735507E+00
  0.1762996E+01  0.1092343E+01 -0.3711251E+01   0.8660373E+00 -0.1604030E+00 -0.4735507E+00
  0.1765634E+01  0.1096959E+01 -0.3707989E+01   0.8660373E+00 -0.1604030E+00 -0.4735507E+00
  0.3595281E+01  0.2151756E+01 -0.7191875E+00   0.8660373E+00 -0.1604030E+00 -0.4735507E+00
  0.3622146E+01 -0.2089752E+01  0.7666458E+00   0.8660373E+00 -0.1604030E+00 -0.4735507E+00
  0.3619508E+01 -0.2094368E+01  0.7633842E+00   0.8660373E+00 -0.1604030E+00 -0.4735507E+00
           4
 -0.3619508E+01  0.2094368E+01 -0.7633842E+00  -0.6656854E+00  0.6452953E+00 -0.3747757E+00
 -0.1765961E+01  0.3133317E+01 -0.2266817E+01  -0.6656854E+00  0.6452953E+00 -0.3747757E+00
 -0.1768600E+01  0.3128701E+01 -0.2270078E+01  -0.6656854E+00  0.6452953E+00 -0.3747757E+00
 -0.3622146E+01  0.2089752E+01 -0.7666458E+00  -0.6656854E+00  0.6452953E+00 -0.3747757E+00
           6
 -0.1765634E+01 -0.1096959E+01  0.3707989E+01  -0.8660373E+00  0.1604030E+00  0.4735507E+00
 -0.1762996E+01 -0.1092343E+01  0.3711251E+01  -0.8660373E+00  0.1604030E+00  0.4735507E+00
 -0.1789861E+01  0.3149165E+01  0.2225418E+01  -0.8660373E+00  0.1604030E+00  0.4735507E+00
 -0.3619508E+01  0.2094368E+01 -0.7633842E+00  -0.8660373E+00  0.1604030E+00  0.4735507E+00
 -0.3622146E+01  0.2089752E+01 -0.7666458E+00  -0.8660373E+00  0.1604030E+00  0.4735507E+00
 -0.3595281E+01 -0.2151756E+01  0.7191875E+00  -0.8660373E+00  0.1604030E+00  0.4735507E+00
           4
 -0.3595281E+01 -0.2151756E+01  0.7191875E+00  -0.2886444E+00 -0.8336292E+00  0.4709000E+00
 -0.6448080E-01 -0.4188566E+01 -0.7223044E+00  -0.2886444E+00 -0.8336292E+00  0.4709000E+00
  0.1765165E+01 -0.3133769E+01  0.2266497E+01  -0.2886444E+00 -0.8336292E+00  0.4709000E+00
 -0.1765634E+01 -0.1096959E+01  0.3707989E+01  -0.2886444E+00 -0.8336292E+00  0.4709000E+00
           6
  0.6448080E-01  0.4188566E+01  0.7223044E+00  -0.4924485E+00  0.8703230E+00 -0.5690440E-02
 -0.1765165E+01  0.3133769E+01 -0.2266497E+01  -0.4924485E+00  0.8703230E+00 -0.5690440E-02
 -0.1765961E+01  0.3133317E+01 -0.2266817E+01  -0.4924485E+00  0.8703230E+00 -0.5690440E-02
 -0.3619508E+01  0.2094368E+01 -0.7633842E+00  -0.4924485E+00  0.8703230E+00 -0.5690440E-02
 -0.1789861E+01  0.3149165E+01  0.2225418E+01  -0.4924485E+00  0.8703230E+00 -0.5690440E-02
 -0.1789065E+01  0.3149618E+01  0.2225737E+01  -0.4924485E+00  0.8703230E+00 -0.5690440E-02
           4
  0.6448080E-01  0.4188566E+01  0.7223044E+00   0.2886444E+00  0.8336292E+00 -0.4709000E+00
  0.3595281E+01  0.2151756E+01 -0.7191875E+00   0.2886444E+00  0.8336292E+00 -0.4709000E+00
  0.1765634E+01  0.1096959E+01 -0.3707989E+01   0.2886444E+00  0.8336292E+00 -0.4709000E+00
 -0.1765165E+01  0.3133769E+01 -0.2266497E+01   0.2886444E+00  0.8336292E+00 -0.4709000E+00
           6
 -0.1762200E+01 -0.1091891E+01  0.3711570E+01   0.4050903E-03 -0.5772161E+00  0.8165913E+00
 -0.1762996E+01 -0.1092343E+01  0.3711251E+01   0.4050903E-03 -0.5772161E+00  0.8165913E+00
 -0.1765634E+01 -0.1096959E+01  0.3707989E+01   0.4050903E-03 -0.5772161E+00  0.8165913E+00
  0.1765165E+01 -0.3133769E+01  0.2266497E+01   0.4050903E-03 -0.5772161E+00  0.8165913E+00
  0.1765961E+01 -0.3133317E+01  0.2266817E+01   0.4050903E-03 -0.5772161E+00  0.8165913E+00
  0.1768600E+01 -0.3128701E+01  0.2270078E+01   0.4050903E-03 -0.5772161E+00  0.8165913E+00
           4
  0.1765961E+01 -0.3133317E+01  0.2266817E+01   0.6656854E+00 -0.6452953E+00  0.3747757E+00
  0.3619508E+01 -0.2094368E+01  0.7633842E+00   0.6656854E+00 -0.6452953E+00  0.3747757E+00
  0.3622146E+01 -0.2089752E+01  0.7666458E+00   0.6656854E+00 -0.6452953E+00  0.3747757E+00
  0.1768600E+01 -0.3128701E+01  0.2270078E+01   0.6656854E+00 -0.6452953E+00  0.3747757E+00
           6
  0.3622146E+01 -0.2089752E+01  0.7666458E+00   0.5000537E+00  0.2891251E+00  0.8163045E+00
  0.3595281E+01  0.2151756E+01 -0.7191875E+00   0.5000537E+00  0.2891251E+00  0.8163045E+00
  0.6448080E-01  0.4188566E+01  0.7223044E+00   0.5000537E+00  0.2891251E+00  0.8163045E+00
 -0.1789065E+01  0.3149618E+01  0.2225737E+01   0.5000537E+00  0.2891251E+00  0.8163045E+00
 -0.1762200E+01 -0.1091891E+01  0.3711570E+01   0.5000537E+00  0.2891251E+00  0.8163045E+00
  0.1768600E+01 -0.3128701E+01  0.2270078E+01   0.5000537E+00  0.2891251E+00  0.8163045E+00
           4
 -0.1762200E+01 -0.1091891E+01  0.3711570E+01  -0.4921219E+00  0.2850260E+00  0.8225426E+00
 -0.1789065E+01  0.3149618E+01  0.2225737E+01  -0.4921219E+00  0.2850260E+00  0.8225426E+00
 -0.1789861E+01  0.3149165E+01  0.2225418E+01  -0.4921219E+00  0.2850260E+00  0.8225426E+00
 -0.1762996E+01 -0.1092343E+01  0.3711251E+01  -0.4921219E+00  0.2850260E+00  0.8225426E+00
 WIGNER-SEITZ-CONVCELL_END
 BRILLOUIN-ZONE-PRIMCELL
           6
 -0.1202295E+00 -0.1086031E+00 -0.5508426E-01  -0.4229873E+00 -0.7400414E+00 -0.5228962E+00
 -0.1520503E-01 -0.1280552E+00 -0.1125118E+00  -0.4229873E+00 -0.7400414E+00 -0.5228962E+00
 -0.1515167E-01 -0.1281069E+00 -0.1124818E+00  -0.4229873E+00 -0.7400414E+00 -0.5228962E+00
 -0.1515157E-01 -0.1282541E+00 -0.1122736E+00  -0.4229873E+00 -0.7400414E+00 -0.5228962E+00
 -0.1201760E+00 -0.1088020E+00 -0.5484602E-01  -0.4229873E+00 -0.7400414E+00 -0.5228962E+00
 -0.1202294E+00 -0.1087503E+00 -0.5487606E-01  -0.4229873E+00 -0.7400414E+00 -0.5228962E+00
           4
  0.1615381E-01 -0.2997769E-01  0.1677034E+00   0.5977686E-02 -0.9437509E+00  0.3306033E+00
 -0.1201760E+00 -0.1088020E+00 -0.5484602E-01   0.5977686E-02 -0.9437509E+00  0.3306033E+00
 -0.1515157E-01 -0.1282541E+00 -0.1122736E+00   0.5977686E-02 -0.9437509E+00  0.3306033E+00
  0.1211783E+00 -0.4942979E-01  0.1102759E+00   0.5977686E-02 -0.9437509E+00  0.3306033E+00
           6
 -0.1843413E-01  0.3110831E-01  0.1672743E+00  -0.7120940E+00 -0.3991425E+00  0.5775876E+00
 -0.1547640E+00 -0.4771600E-01 -0.5527512E-01  -0.7120940E+00 -0.3991425E+00  0.5775876E+00
 -0.1202294E+00 -0.1087503E+00 -0.5487606E-01  -0.7120940E+00 -0.3991425E+00  0.5775876E+00
 -0.1201760E+00 -0.1088020E+00 -0.5484602E-01  -0.7120940E+00 -0.3991425E+00  0.5775876E+00
  0.1615381E-01 -0.2997769E-01  0.1677034E+00  -0.7120940E+00 -0.3991425E+00  0.5775876E+00
 -0.1838078E-01  0.3105659E-01  0.1673044E+00  -0.7120940E+00 -0.3991425E+00  0.5775876E+00
           6
  0.1547641E+00  0.4756883E-01  0.5548332E-01   0.8166446E+00 -0.4710972E+00 -0.3334051E+00
  0.1211783E+00 -0.4942979E-01  0.1102759E+00   0.8166446E+00 -0.4710972E+00 -0.3334051E+00
 -0.1515157E-01 -0.1282541E+00 -0.1122736E+00   0.8166446E+00 -0.4710972E+00 -0.3334051E+00
 -0.1515167E-01 -0.1281069E+00 -0.1124818E+00   0.8166446E+00 -0.4710972E+00 -0.3334051E+00
  0.1843413E-01 -0.3110831E-01 -0.1672743E+00   0.8166446E+00 -0.4710972E+00 -0.3334051E+00
  0.1547640E+00  0.4771600E-01  0.5527512E-01   0.8166446E+00 -0.4710972E+00 -0.3334051E+00
           4
 -0.1547641E+00 -0.4756883E-01 -0.5548332E-01  -0.8208348E+00 -0.4666008E+00 -0.3294145E+00
 -0.1202295E+00 -0.1086031E+00 -0.5508426E-01  -0.8208348E+00 -0.4666008E+00 -0.3294145E+00
 -0.1202294E+00 -0.1087503E+00 -0.5487606E-01  -0.8208348E+00 -0.4666008E+00 -0.3294145E+00
 -0.1547640E+00 -0.4771600E-01 -0.5527512E-01  -0.8208348E+00 -0.4666008E+00 -0.3294145E+00
           6
 -0.1211783E+00  0.4942979E-01 -0.1102759E+00  -0.4999493E+00 -0.2882224E+00 -0.8166875E+00
 -0.1615381E-01  0.2997769E-01 -0.1677034E+00  -0.4999493E+00 -0.2882224E+00 -0.8166875E+00
  0.1838078E-01 -0.3105659E-01 -0.1673044E+00  -0.4999493E+00 -0.2882224E+00 -0.8166875E+00
 -0.1520503E-01 -0.1280552E+00 -0.1125118E+00  -0.4999493E+00 -0.2882224E+00 -0.8166875E+00
 -0.1202295E+00 -0.1086031E+00 -0.5508426E-01  -0.4999493E+00 -0.2882224E+00 -0.8166875E+00
 -0.1547641E+00 -0.4756883E-01 -0.5548332E-01  -0.4999493E+00 -0.2882224E+00 -0.8166875E+00
           4
 -0.1515167E-01 -0.1281069E+00 -0.1124818E+00   0.1003119E-01 -0.4944404E+00 -0.8691537E+00
 -0.1520503E-01 -0.1280552E+00 -0.1125118E+00   0.1003119E-01 -0.4944404E+00 -0.8691537E+00
  0.1838078E-01 -0.3105659E-01 -0.1673044E+00   0.1003119E-01 -0.4944404E+00 -0.8691537E+00
  0.1843413E-01 -0.3110831E-01 -0.1672743E+00   0.1003119E-01 -0.4944404E+00 -0.8691537E+00
           6
 -0.1838078E-01  0.3105659E-01  0.1673044E+00   0.4999493E+00  0.2882224E+00  0.8166875E+00
  0.1615381E-01 -0.2997769E-01  0.1677034E+00   0.4999493E+00  0.2882224E+00  0.8166875E+00
  0.1211783E+00 -0.4942979E-01  0.1102759E+00   0.4999493E+00  0.2882224E+00  0.8166875E+00
  0.1547641E+00  0.4756883E-01  0.5548332E-01   0.4999493E+00  0.2882224E+00  0.8166875E+00
  0.1202295E+00  0.1086031E+00  0.5508426E-01   0.4999493E+00  0.2882224E+00  0.8166875E+00
  0.1520503E-01  0.1280552E+00  0.1125118E+00   0.4999493E+00  0.2882224E+00  0.8166875E+00
           6
  0.1515157E-01  0.1282541E+00  0.1122736E+00  -0.8166446E+00  0.4710972E+00  0.3334051E+00
 -0.1211783E+00  0.4942979E-01 -0.1102759E+00  -0.8166446E+00  0.4710972E+00  0.3334051E+00
 -0.1547641E+00 -0.4756883E-01 -0.5548332E-01  -0.8166446E+00  0.4710972E+00  0.3334051E+00
 -0.1547640E+00 -0.4771600E-01 -0.5527512E-01  -0.8166446E+00  0.4710972E+00  0.3334051E+00
 -0.1843413E-01  0.3110831E-01  0.1672743E+00  -0.8166446E+00  0.4710972E+00  0.3334051E+00
  0.1515167E-01  0.1281069E+00  0.1124818E+00  -0.8166446E+00  0.4710972E+00  0.3334051E+00
           4
  0.1520503E-01  0.1280552E+00  0.1125118E+00  -0.1003119E-01  0.4944404E+00  0.8691537E+00
  0.1515167E-01  0.1281069E+00  0.1124818E+00  -0.1003119E-01  0.4944404E+00  0.8691537E+00
 -0.1843413E-01  0.3110831E-01  0.1672743E+00  -0.1003119E-01  0.4944404E+00  0.8691537E+00
 -0.1838078E-01  0.3105659E-01  0.1673044E+00  -0.1003119E-01  0.4944404E+00  0.8691537E+00
           6
  0.1202294E+00  0.1087503E+00  0.5487606E-01   0.7120940E+00  0.3991425E+00 -0.5775876E+00
  0.1547640E+00  0.4771600E-01  0.5527512E-01   0.7120940E+00  0.3991425E+00 -0.5775876E+00
  0.1843413E-01 -0.3110831E-01 -0.1672743E+00   0.7120940E+00  0.3991425E+00 -0.5775876E+00
  0.1838078E-01 -0.3105659E-01 -0.1673044E+00   0.7120940E+00  0.3991425E+00 -0.5775876E+00
 -0.1615381E-01  0.2997769E-01 -0.1677034E+00   0.7120940E+00  0.3991425E+00 -0.5775876E+00
  0.1201760E+00  0.1088020E+00  0.5484602E-01   0.7120940E+00  0.3991425E+00 -0.5775876E+00
           4
  0.1202295E+00  0.1086031E+00  0.5508426E-01   0.8208348E+00  0.4666008E+00  0.3294145E+00
  0.1547641E+00  0.4756883E-01  0.5548332E-01   0.8208348E+00  0.4666008E+00  0.3294145E+00
  0.1547640E+00  0.4771600E-01  0.5527512E-01   0.8208348E+00  0.4666008E+00  0.3294145E+00
  0.1202294E+00  0.1087503E+00  0.5487606E-01   0.8208348E+00  0.4666008E+00  0.3294145E+00
           4
  0.1201760E+00  0.1088020E+00  0.5484602E-01  -0.5977686E-02  0.9437509E+00 -0.3306033E+00
 -0.1615381E-01  0.2997769E-01 -0.1677034E+00  -0.5977686E-02  0.9437509E+00 -0.3306033E+00
 -0.1211783E+00  0.4942979E-01 -0.1102759E+00  -0.5977686E-02  0.9437509E+00 -0.3306033E+00
  0.1515157E-01  0.1282541E+00  0.1122736E+00  -0.5977686E-02  0.9437509E+00 -0.3306033E+00
           6
  0.1515167E-01  0.1281069E+00  0.1124818E+00   0.4229873E+00  0.7400414E+00  0.5228962E+00
  0.1520503E-01  0.1280552E+00  0.1125118E+00   0.4229873E+00  0.7400414E+00  0.5228962E+00
  0.1202295E+00  0.1086031E+00  0.5508426E-01   0.4229873E+00  0.7400414E+00  0.5228962E+00
  0.1202294E+00  0.1087503E+00  0.5487606E-01   0.4229873E+00  0.7400414E+00  0.5228962E+00
  0.1201760E+00  0.1088020E+00  0.5484602E-01   0.4229873E+00  0.7400414E+00  0.5228962E+00
  0.1515157E-01  0.1282541E+00  0.1122736E+00   0.4229873E+00  0.7400414E+00  0.5228962E+00
 BRILLOUIN-ZONE-PRIMCELL_END
 BRILLOUIN-ZONE-CONVCELL
           6
 -0.1202295E+00 -0.1086031E+00 -0.5508426E-01  -0.4229873E+00 -0.7400414E+00 -0.5228962E+00
 -0.1520503E-01 -0.1280552E+00 -0.1125118E+00  -0.4229873E+00 -0.7400414E+00 -0.5228962E+00
 -0.1515167E-01 -0.1281069E+00 -0.1124818E+00  -0.4229873E+00 -0.7400414E+00 -0.5228962E+00
 -0.1515157E-01 -0.1282541E+00 -0.1122736E+00  -0.4229873E+00 -0.7400414E+00 -0.5228962E+00
 -0.1201760E+00 -0.1088020E+00 -0.5484602E-01  -0.4229873E+00 -0.7400414E+00 -0.5228962E+00
 -0.1202294E+00 -0.1087503E+00 -0.5487606E-01  -0.4229873E+00 -0.7400414E+00 -0.5228962E+00
           4
  0.1615381E-01 -0.2997769E-01  0.1677034E+00   0.5977686E-02 -0.9437509E+00  0.3306033E+00
 -0.1201760E+00 -0.1088020E+00 -0.5484602E-01   0.5977686E-02 -0.9437509E+00  0.3306033E+00
 -0.1515157E-01 -0.1282541E+00 -0.1122736E+00   0.5977686E-02 -0.9437509E+00  0.3306033E+00
  0.1211783E+00 -0.4942979E-01  0.1102759E+00   0.5977686E-02 -0.9437509E+00  0.3306033E+00
           6
 -0.1843413E-01  0.3110831E-01  0.1672743E+00  -0.7120940E+00 -0.3991425E+00  0.5775876E+00
 -0.1547640E+00 -0.4771600E-01 -0.5527512E-01  -0.7120940E+00 -0.3991425E+00  0.5775876E+00
 -0.1202294E+00 -0.1087503E+00 -0.5487606E-01  -0.7120940E+00 -0.3991425E+00  0.5775876E+00
 -0.1201760E+00 -0.1088020E+00 -0.5484602E-01  -0.7120940E+00 -0.3991425E+00  0.5775876E+00
  0.1615381E-01 -0.2997769E-01  0.1677034E+00  -0.7120940E+00 -0.3991425E+00  0.5775876E+00
 -0.1838078E-01  0.3105659E-01  0.1673044E+00  -0.7120940E+00 -0.3991425E+00  0.5775876E+00
           6
  0.1547641E+00  0.4756883E-01  0.5548332E-01   0.8166446E+00 -0.4710972E+00 -0.3334051E+00
  0.1211783E+00 -0.4942979E-01  0.1102759E+00   0.8166446E+00 -0.4710972E+00 -0.3334051E+00
 -0.1515157E-01 -0.1282541E+00 -0.1122736E+00   0.8166446E+00 -0.4710972E+00 -0.3334051E+00
 -0.1515167E-01 -0.1281069E+00 -0.1124818E+00   0.8166446E+00 -0.4710972E+00 -0.3334051E+00
  0.1843413E-01 -0.3110831E-01 -0.1672743E+00   0.8166446E+00 -0.4710972E+00 -0.3334051E+00
  0.1547640E+00  0.4771600E-01  0.5527512E-01   0.8166446E+00 -0.4710972E+00 -0.3334051E+00
           4
 -0.1547641E+00 -0.4756883E-01 -0.5548332E-01  -0.8208348E+00 -0.4666008E+00 -0.3294145E+00
 -0.1202295E+00 -0.1086031E+00 -0.5508426E-01  -0.8208348E+00 -0.4666008E+00 -0.3294145E+00
 -0.1202294E+00 -0.1087503E+00 -0.5487606E-01  -0.8208348E+00 -0.4666008E+00 -0.3294145E+00
 -0.1547640E+00 -0.4771600E-01 -0.5527512E-01  -0.8208348E+00 -0.4666008E+00 -0.3294145E+00
           6
 -0.1211783E+00  0.4942979E-01 -0.1102759E+00  -0.4999493E+00 -0.2882224E+00 -0.8166875E+00
 -0.1615381E-01  0.2997769E-01 -0.1677034E+00  -0.4999493E+00 -0.2882224E+00 -0.8166875E+00
  0.1838078E-01 -0.3105659E-01 -0.1673044E+00  -0.4999493E+00 -0.2882224E+00 -0.8166875E+00
 -0.1520503E-01 -0.1280552E+00 -0.1125118E+00  -0.4999493E+00 -0.2882224E+00 -0.8166875E+00
 -0.1202295E+00 -0.1086031E+00 -0.5508426E-01  -0.4999493E+00 -0.2882224E+00 -0.8166875E+00
 -0.1547641E+00 -0.4756883E-01 -0.5548332E-01  -0.4999493E+00 -0.2882224E+00 -0.8166875E+00
           4
 -0.1515167E-01 -0.1281069E+00 -0.1124818E+00   0.1003119E-01 -0.4944404E+00 -0.8691537E+00
 -0.1520503E-01 -0.1280552E+00 -0.1125118E+00   0.1003119E-01 -0.4944404E+00 -0.8691537E+00
  0.1838078E-01 -0.3105659E-01 -0.1673044E+00   0.1003119E-01 -0.4944404E+00 -0.8691537E+00
  0.1843413E-01 -0.3110831E-01 -0.1672743E+00   0.1003119E-01 -0.4944404E+00 -0.8691537E+00
           6
 -0.1838078E-01  0.3105659E-01  0.1673044E+00   0.4999493E+00  0.2882224E+00  0.8166875E+00
  0.1615381E-01 -0.2997769E-01  0.1677034E+00   0.4999493E+00  0.2882224E+00  0.8166875E+00
  0.1211783E+00 -0.4942979E-01  0.1102759E+00   0.4999493E+00  0.2882224E+00  0.8166875E+00
  0.1547641E+00  0.4756883E-01  0.5548332E-01   0.4999493E+00  0.2882224E+00  0.8166875E+00
  0.1202295E+00  0.1086031E+00  0.5508426E-01   0.4999493E+00  0.2882224E+00  0.8166875E+00
  0.1520503E-01  0.1280552E+00  0.1125118E+00   0.4999493E+00  0.2882224E+00  0.8166875E+00
           6
  0.1515157E-01  0.1282541E+00  0.1122736E+00  -0.8166446E+00  0.4710972E+00  0.3334051E+00
 -0.1211783E+00  0.4942979E-01 -0.1102759E+00  -0.8166446E+00  0.4710972E+00  0.3334051E+00
 -0.1547641E+00 -0.4756883E-01 -0.5548332E-01  -0.8166446E+00  0.4710972E+00  0.3334051E+00
 -0.1547640E+00 -0.4771600E-01 -0.5527512E-01  -0.8166446E+00  0.4710972E+00  0.3334051E+00
 -0.1843413E-01  0.3110831E-01  0.1672743E+00  -0.8166446E+00  0.4710972E+00  0.3334051E+00
  0.1515167E-01  0.1281069E+00  0.1124818E+00  -0.8166446E+00  0.4710972E+00  0.3334051E+00
           4
  0.1520503E-01  0.1280552E+00  0.1125118E+00  -0.1003119E-01  0.4944404E+00  0.8691537E+00
  0.1515167E-01  0.1281069E+00  0.1124818E+00  -0.1003119E-01  0.4944404E+00  0.8691537E+00
 -0.1843413E-01  0.3110831E-01  0.1672743E+00  -0.1003119E-01  0.4944404E+00  0.8691537E+00
 -0.1838078E-01  0.3105659E-01  0.1673044E+00  -0.1003119E-01  0.4944404E+00  0.8691537E+00
           6
  0.1202294E+00  0.1087503E+00  0.5487606E-01   0.7120940E+00  0.3991425E+00 -0.5775876E+00
  0.1547640E+00  0.4771600E-01  0.5527512E-01   0.7120940E+00  0.3991425E+00 -0.5775876E+00
  0.1843413E-01 -0.3110831E-01 -0.1672743E+00   0.7120940E+00  0.3991425E+00 -0.5775876E+00
  0.1838078E-01 -0.3105659E-01 -0.1673044E+00   0.7120940E+00  0.3991425E+00 -0.5775876E+00
 -0.1615381E-01  0.2997769E-01 -0.1677034E+00   0.7120940E+00  0.3991425E+00 -0.5775876E+00
  0.1201760E+00  0.1088020E+00  0.5484602E-01   0.7120940E+00  0.3991425E+00 -0.5775876E+00
           4
  0.1202295E+00  0.1086031E+00  0.5508426E-01   0.8208348E+00  0.4666008E+00  0.3294145E+00
  0.1547641E+00  0.4756883E-01  0.5548332E-01   0.8208348E+00  0.4666008E+00  0.3294145E+00
  0.1547640E+00  0.4771600E-01  0.5527512E-01   0.8208348E+00  0.4666008E+00  0.3294145E+00
  0.1202294E+00  0.1087503E+00  0.5487606E-01   0.8208348E+00  0.4666008E+00  0.3294145E+00
           4
  0.1201760E+00  0.1088020E+00  0.5484602E-01  -0.5977686E-02  0.9437509E+00 -0.3306033E+00
 -0.1615381E-01  0.2997769E-01 -0.1677034E+00  -0.5977686E-02  0.9437509E+00 -0.3306033E+00
 -0.1211783E+00  0.4942979E-01 -0.1102759E+00  -0.5977686E-02  0.9437509E+00 -0.3306033E+00
  0.1515157E-01  0.1282541E+00  0.1122736E+00  -0.5977686E-02  0.9437509E+00 -0.3306033E+00
           6
  0.1515167E-01  0.1281069E+00  0.1124818E+00   0.4229873E+00  0.7400414E+00  0.5228962E+00
  0.1520503E-01  0.1280552E+00  0.1125118E+00   0.4229873E+00  0.7400414E+00  0.5228962E+00
  0.1202295E+00  0.1086031E+00  0.5508426E-01   0.4229873E+00  0.7400414E+00  0.5228962E+00
  0.1202294E+00  0.1087503E+00  0.5487606E-01   0.4229873E+00  0.7400414E+00  0.5228962E+00
  0.1201760E+00  0.1088020E+00  0.5484602E-01   0.4229873E+00  0.7400414E+00  0.5228962E+00
  0.1515157E-01  0.1282541E+00  0.1122736E+00   0.4229873E+00  0.7400414E+00  0.5228962E+00
 BRILLOUIN-ZONE-CONVCELL_END
 ATOMS
   25    5.4424053630    3.2064437970    2.2705503750    0.0003540400    0.0000035300   -0.0001921200
   25    7.2740037090    6.3791372520    2.2739008320    0.0003539600    0.0000044200   -0.0001923900
   25    9.0515141380    3.2376729400    2.2944418580    0.0003549900    0.0000031000   -0.0001926300
   25   10.8831126290    6.4103655110    2.2977924000    0.0003546400    0.0000036200   -0.0001925900