
     Program PWSCF v.7.3.1 starts on 20Jan2025 at 19:45:51 

     This program is part of the open-source Quantum ESPRESSO suite
     for quantum simulation of materials; please cite
         "P. Giannozzi et al., J. Phys.:Condens. Matter 21 395502 (2009);
         "P. Giannozzi et al., J. Phys.:Condens. Matter 29 465901 (2017);
         "P. Giannozzi et al., J. Chem. Phys. 152 154105 (2020);
          URL http://www.quantum-espresso.org", 
     in publications or presentations arising from this work. More details at
     http://www.quantum-espresso.org/quote

     Parallel version (MPI), running on     6 processors

     MPI processes distributed on     1 nodes
     3275 MiB available memory on the printing compute node when the environment starts

     Reading input from vc_relax.in

     Current dimensions of program PWSCF are:
     Max number of different atomic species (ntypx) = 10
     Max number of k-points (npk) =  40000
     Max angular momentum in pseudopotentials (lmaxx) =  4
     file Mn.pbe-spn-kjpaw_psl.0.3.1.UPF: wavefunction(s)  3P 3D renormalized
     file Mn.pbe-spn-kjpaw_psl.0.3.1.UPF: wavefunction(s)  3P 3D renormalized
     file Mn.pbe-spn-kjpaw_psl.0.3.1.UPF: wavefunction(s)  3P 3D renormalized
     file Mn.pbe-spn-kjpaw_psl.0.3.1.UPF: wavefunction(s)  3P 3D renormalized
     file S.pbe-n-kjpaw_psl.1.0.0.UPF: wavefunction(s)  3S 3P renormalized

     R & G space division:  proc/nbgrp/npool/nimage =       6
     Subspace diagonalization in iterative solution of the eigenvalue problem:
     a serial algorithm will be used


     Parallelization info
     --------------------
     sticks:   dense  smooth     PW     G-vecs:    dense   smooth      PW
     Min         374     300     92                 5900     4227     706
     Max         375     301     93                 5902     4229     707
     Sum        2245    1801    555                35405    25365    4237

     Using Slab Decomposition



     bravais-lattice index     =            0
     lattice parameter (alat)  =      14.7866  a.u.
     unit-cell volume          =    1143.0296 (a.u.)^3
     number of atoms/cell      =            8
     number of atomic types    =            5
     number of electrons       =        84.00
     number of Kohn-Sham states=           50
     kinetic-energy cutoff     =      30.0000  Ry
     charge density cutoff     =     150.0000  Ry
     scf convergence threshold =      1.0E-10
     mixing beta               =       0.7000
     number of iterations used =            8  plain     mixing
     energy convergence thresh.=      1.0E-05
     force convergence thresh. =      1.0E-04
     press convergence thresh. =      5.0E-01
     Exchange-correlation= SLA  PW   PBX  PBC
                           (   1   4   3   4   0   0   0)
     nstep                     =           50


     celldm(1)=  14.786571  celldm(2)=   0.000000  celldm(3)=   0.000000
     celldm(4)=   0.000000  celldm(5)=   0.000000  celldm(6)=   0.000000

     crystal axes: (cart. coord. in units of alat)
               a(1) = (   1.000000   0.000000   0.000000 )  
               a(2) = (   0.500000   0.866025   0.000000 )  
               a(3) = (   0.250000   0.144338   0.408248 )  

     reciprocal axes: (cart. coord. in units 2 pi/alat)
               b(1) = (  1.000000 -0.577350 -0.408248 )  
               b(2) = (  0.000000  1.154700 -0.408248 )  
               b(3) = (  0.000000  0.000000  2.449490 )  


     PseudoPot. # 1 for Mn read from file:
     ./../../../pseudos/Mn.pbe-spn-kjpaw_psl.0.3.1.UPF
     MD5 check sum: ba19e6d7ccbc12830efad05ba8577d9c
     Pseudo is Projector augmented-wave + core cor, Zval = 15.0
     Generated using &quot;atomic&quot; code by A. Dal Corso  v.6.2.2
     Shape of augmentation charge: PSQ
     Using radial grid of 1187 points,  6 beta functions with: 
                l(1) =   0
                l(2) =   0
                l(3) =   1
                l(4) =   1
                l(5) =   2
                l(6) =   2
     Q(r) pseudized with 0 coefficients 


     PseudoPot. # 2 for Mn read from file:
     ./../../../pseudos/Mn.pbe-spn-kjpaw_psl.0.3.1.UPF
     MD5 check sum: ba19e6d7ccbc12830efad05ba8577d9c
     Pseudo is Projector augmented-wave + core cor, Zval = 15.0
     Generated using &quot;atomic&quot; code by A. Dal Corso  v.6.2.2
     Shape of augmentation charge: PSQ
     Using radial grid of 1187 points,  6 beta functions with: 
                l(1) =   0
                l(2) =   0
                l(3) =   1
                l(4) =   1
                l(5) =   2
                l(6) =   2
     Q(r) pseudized with 0 coefficients 


     PseudoPot. # 3 for Mn read from file:
     ./../../../pseudos/Mn.pbe-spn-kjpaw_psl.0.3.1.UPF
     MD5 check sum: ba19e6d7ccbc12830efad05ba8577d9c
     Pseudo is Projector augmented-wave + core cor, Zval = 15.0
     Generated using &quot;atomic&quot; code by A. Dal Corso  v.6.2.2
     Shape of augmentation charge: PSQ
     Using radial grid of 1187 points,  6 beta functions with: 
                l(1) =   0
                l(2) =   0
                l(3) =   1
                l(4) =   1
                l(5) =   2
                l(6) =   2
     Q(r) pseudized with 0 coefficients 


     PseudoPot. # 4 for Mn read from file:
     ./../../../pseudos/Mn.pbe-spn-kjpaw_psl.0.3.1.UPF
     MD5 check sum: ba19e6d7ccbc12830efad05ba8577d9c
     Pseudo is Projector augmented-wave + core cor, Zval = 15.0
     Generated using &quot;atomic&quot; code by A. Dal Corso  v.6.2.2
     Shape of augmentation charge: PSQ
     Using radial grid of 1187 points,  6 beta functions with: 
                l(1) =   0
                l(2) =   0
                l(3) =   1
                l(4) =   1
                l(5) =   2
                l(6) =   2
     Q(r) pseudized with 0 coefficients 


     PseudoPot. # 5 for S  read from file:
     ./../../../pseudos/S.pbe-n-kjpaw_psl.1.0.0.UPF
     MD5 check sum: fb45dfebcf3e72a4e1bd4a866ec2e262
     Pseudo is Projector augmented-wave + core cor, Zval =  6.0
     Generated using &quot;atomic&quot; code by A. Dal Corso  v.6.3
     Shape of augmentation charge: PSQ
     Using radial grid of 1151 points,  6 beta functions with: 
                l(1) =   0
                l(2) =   0
                l(3) =   1
                l(4) =   1
                l(5) =   2
                l(6) =   2
     Q(r) pseudized with 0 coefficients 


     atomic species   valence    mass     pseudopotential
     Mn1              15.00    54.93800     Mn( 1.00)
     Mn2              15.00    54.93800     Mn( 1.00)
     Mn3              15.00    54.93800     Mn( 1.00)
     Mn4              15.00    54.93800     Mn( 1.00)
     S                 6.00    32.06500     S ( 1.00)

     Starting magnetic structure 
     atomic species   magnetization
     Mn1             0.200
     Mn2             0.200
     Mn3            -0.200
     Mn4            -0.200
     S               0.000

     No symmetry found


                                    s                        frac. trans.

      isym =  1     identity                                     

 cryst.   s( 1) = (     1          0          0      )
                  (     0          1          0      )
                  (     0          0          1      )

 cart.    s( 1) = (  1.0000000  0.0000000  0.0000000 )
                  (  0.0000000  1.0000000  0.0000000 )
                  (  0.0000000  0.0000000  1.0000000 )


   Cartesian axes

     site n.     atom                  positions (alat units)
         1        Mn1    tau(   1) = (   0.7465164   0.4349995   0.3076177  )
         2        Mn2    tau(   2) = (   0.9965165   0.8680123   0.3076176  )
         3        Mn3    tau(   3) = (   1.2465167   0.4349994   0.3076175  )
         4        Mn4    tau(   4) = (   1.4965166   0.8680121   0.3076176  )
         5        S      tau(   5) = (   0.7534833   1.0083762   0.4068170  )
         6        S      tau(   6) = (   0.5034833   0.5753635   0.4068170  )
         7        S      tau(   7) = (   1.2534834   1.0083762   0.4068169  )
         8        S      tau(   8) = (   1.0034834   0.5753634   0.4068170  )

   Crystallographic axes

     site n.     atom                  positions (cryst. coord.)
         1        Mn1    tau(   1) = (  0.3697850  0.3767098  0.7535064  )
         2        Mn2    tau(   2) = (  0.3697851  0.8767099  0.7535060  )
         3        Mn3    tau(   3) = (  0.8697854  0.3767098  0.7535059  )
         4        Mn4    tau(   4) = (  0.8697852  0.8767097  0.7535061  )
         5        S      tau(   5) = (  0.0052147  0.9982902  0.9964939  )
         6        S      tau(   6) = (  0.0052148  0.4982902  0.9964939  )
         7        S      tau(   7) = (  0.5052149  0.9982902  0.9964938  )
         8        S      tau(   8) = (  0.5052149  0.4982901  0.9964939  )

     number of k points=    23  Gaussian smearing, width (Ry)=  0.0100
                       cart. coord. in units 2pi/alat
        k(    1) = (   0.0000000   0.0000000   0.0000000), wk =   0.0222222
        k(    2) = (   0.0000000   0.0000000   0.4898979), wk =   0.0444444
        k(    3) = (   0.0000000   0.0000000   0.9797958), wk =   0.0444444
        k(    4) = (   0.0000000   0.3849002  -0.1360827), wk =   0.0444444
        k(    5) = (   0.0000000   0.3849002   0.3538152), wk =   0.0444444
        k(    6) = (   0.0000000   0.3849002   0.8437131), wk =   0.0444444
        k(    7) = (   0.0000000   0.3849002  -1.1158786), wk =   0.0444444
        k(    8) = (   0.0000000   0.3849002  -0.6259807), wk =   0.0444444
        k(    9) = (   0.3333333   0.1924501  -0.2721655), wk =   0.0444444
        k(   10) = (   0.3333333   0.1924501   0.2177324), wk =   0.0444444
        k(   11) = (   0.3333333   0.1924501   0.7076304), wk =   0.0444444
        k(   12) = (   0.3333333   0.1924501  -1.2519613), wk =   0.0444444
        k(   13) = (   0.3333333   0.1924501  -0.7620634), wk =   0.0444444
        k(   14) = (   0.3333333  -0.5773502   0.0000000), wk =   0.0444444
        k(   15) = (   0.3333333  -0.5773502   0.4898979), wk =   0.0444444
        k(   16) = (   0.3333333  -0.5773502   0.9797959), wk =   0.0444444
        k(   17) = (  -0.3333333   0.1924501   0.1360827), wk =   0.0444444
        k(   18) = (  -0.3333333   0.1924501  -0.3538152), wk =   0.0444444
        k(   19) = (  -0.3333333   0.1924501  -0.8437131), wk =   0.0444444
        k(   20) = (  -0.3333333   0.1924501   1.1158786), wk =   0.0444444
        k(   21) = (  -0.3333333   0.1924501   0.6259807), wk =   0.0444444
        k(   22) = (   0.3333333  -0.5773502  -0.4898979), wk =   0.0444444
        k(   23) = (   0.3333333  -0.5773502  -0.9797958), wk =   0.0444444

                       cryst. coord.
        k(    1) = (   0.0000000   0.0000000   0.0000000), wk =   0.0222222
        k(    2) = (   0.0000000   0.0000000   0.2000000), wk =   0.0444444
        k(    3) = (   0.0000000   0.0000000   0.4000000), wk =   0.0444444
        k(    4) = (   0.0000000   0.3333333   0.0000000), wk =   0.0444444
        k(    5) = (   0.0000000   0.3333333   0.2000000), wk =   0.0444444
        k(    6) = (   0.0000000   0.3333333   0.4000000), wk =   0.0444444
        k(    7) = (   0.0000000   0.3333333  -0.4000000), wk =   0.0444444
        k(    8) = (   0.0000000   0.3333333  -0.2000000), wk =   0.0444444
        k(    9) = (   0.3333333   0.3333333   0.0000000), wk =   0.0444444
        k(   10) = (   0.3333333   0.3333333   0.2000000), wk =   0.0444444
        k(   11) = (   0.3333333   0.3333333   0.4000000), wk =   0.0444444
        k(   12) = (   0.3333333   0.3333333  -0.4000000), wk =   0.0444444
        k(   13) = (   0.3333333   0.3333333  -0.2000000), wk =   0.0444444
        k(   14) = (   0.3333333  -0.3333333   0.0000000), wk =   0.0444444
        k(   15) = (   0.3333333  -0.3333333   0.2000000), wk =   0.0444444
        k(   16) = (   0.3333333  -0.3333333   0.4000000), wk =   0.0444444
        k(   17) = (  -0.3333333   0.0000000  -0.0000000), wk =   0.0444444
        k(   18) = (  -0.3333333   0.0000000  -0.2000000), wk =   0.0444444
        k(   19) = (  -0.3333333   0.0000000  -0.4000000), wk =   0.0444444
        k(   20) = (  -0.3333333   0.0000000   0.4000000), wk =   0.0444444
        k(   21) = (  -0.3333333   0.0000000   0.2000000), wk =   0.0444444
        k(   22) = (   0.3333333  -0.3333333  -0.2000000), wk =   0.0444444
        k(   23) = (   0.3333333  -0.3333333  -0.4000000), wk =   0.0444444

     Dense  grid:    35405 G-vectors     FFT dimensions: (  60,  60,  30)

     Smooth grid:    25365 G-vectors     FFT dimensions: (  54,  54,  25)

     Dynamical RAM for                 wfc:       0.40 MB

     Dynamical RAM for     wfc (w. buffer):      18.93 MB

     Dynamical RAM for           str. fact:       0.45 MB

     Dynamical RAM for           local pot:       0.00 MB

     Dynamical RAM for          nlocal pot:       1.16 MB

     Dynamical RAM for                qrad:       9.84 MB

     Dynamical RAM for          rho,v,vnew:       1.36 MB

     Dynamical RAM for               rhoin:       0.45 MB

     Dynamical RAM for            rho*nmix:       2.88 MB

     Dynamical RAM for           G-vectors:       0.37 MB

     Dynamical RAM for          h,s,v(r/c):       0.46 MB

     Dynamical RAM for          <psi|beta>:       0.11 MB

     Dynamical RAM for                 psi:       0.81 MB

     Dynamical RAM for                hpsi:       0.81 MB

     Dynamical RAM for                spsi:       0.81 MB

     Dynamical RAM for      wfcinit/wfcrot:       0.97 MB

     Dynamical RAM for           addusdens:      17.20 MB

     Dynamical RAM for          addusforce:      17.77 MB

     Dynamical RAM for         addusstress:      18.24 MB

     Estimated static dynamical RAM per process >      33.94 MB

     Estimated max dynamical RAM per process >      55.06 MB

     Estimated total dynamical RAM >     330.34 MB

     Check: negative core charge=   -0.000238
     Generating pointlists ...
     new r_m :   0.1228 (alat units)  1.8156 (a.u.) for type    1
     new r_m :   0.1228 (alat units)  1.8156 (a.u.) for type    2
     new r_m :   0.1228 (alat units)  1.8156 (a.u.) for type    3
     new r_m :   0.1228 (alat units)  1.8156 (a.u.) for type    4
     new r_m :   0.1228 (alat units)  1.8156 (a.u.) for type    5

     Initial potential from superposition of free atoms

     starting charge      83.9979, renormalised to      84.0000
     Starting wfcs are   56 randomized atomic wfcs
     Checking if some PAW data can be deallocated... 
       PAW data deallocated on    5 nodes for type:  1
       PAW data deallocated on    5 nodes for type:  2
       PAW data deallocated on    5 nodes for type:  3
       PAW data deallocated on    5 nodes for type:  4
       PAW data deallocated on    2 nodes for type:  5

     total cpu time spent up to now is        4.4 secs

     Self-consistent Calculation

     iteration #  1     ecut=    30.00 Ry     beta= 0.70
     Davidson diagonalization with overlap

---- Real-time Memory Report at c_bands before calling an iterative solver
            73 MiB given to the printing process from OS
             0 MiB allocation reported by mallinfo(arena+hblkhd)
          2978 MiB available memory on the node where the printing process lives
------------------
     ethr =  1.00E-02,  avg # of iterations =  2.0

     Threshold (ethr) on eigenvalues was too large:
     Diagonalizing with lowered threshold

     Davidson diagonalization with overlap

---- Real-time Memory Report at c_bands before calling an iterative solver
            89 MiB given to the printing process from OS
             0 MiB allocation reported by mallinfo(arena+hblkhd)
          2889 MiB available memory on the node where the printing process lives
------------------
     ethr =  3.69E-04,  avg # of iterations =  4.0

     total cpu time spent up to now is       20.9 secs

     total energy              =   -1411.02631055 Ry
     estimated scf accuracy    <       0.27049693 Ry

     total magnetization       =    -0.00 Bohr mag/cell
     absolute magnetization    =    16.24 Bohr mag/cell

     iteration #  2     ecut=    30.00 Ry     beta= 0.70
     Davidson diagonalization with overlap

---- Real-time Memory Report at c_bands before calling an iterative solver
            92 MiB given to the printing process from OS
             0 MiB allocation reported by mallinfo(arena+hblkhd)
          2858 MiB available memory on the node where the printing process lives
------------------
     ethr =  3.22E-04,  avg # of iterations =  2.2

     total cpu time spent up to now is       29.7 secs

     total energy              =   -1411.09725056 Ry
     estimated scf accuracy    <       0.03023413 Ry

     total magnetization       =     0.00 Bohr mag/cell
     absolute magnetization    =    17.10 Bohr mag/cell

     iteration #  3     ecut=    30.00 Ry     beta= 0.70
     Davidson diagonalization with overlap

---- Real-time Memory Report at c_bands before calling an iterative solver
            93 MiB given to the printing process from OS
             0 MiB allocation reported by mallinfo(arena+hblkhd)
          2802 MiB available memory on the node where the printing process lives
------------------
     ethr =  3.60E-05,  avg # of iterations =  5.6

     total cpu time spent up to now is       40.7 secs

     total energy              =   -1411.10112516 Ry
     estimated scf accuracy    <       0.03399715 Ry

     total magnetization       =    -0.00 Bohr mag/cell
     absolute magnetization    =    17.55 Bohr mag/cell

     iteration #  4     ecut=    30.00 Ry     beta= 0.70
     Davidson diagonalization with overlap

---- Real-time Memory Report at c_bands before calling an iterative solver
            93 MiB given to the printing process from OS
             0 MiB allocation reported by mallinfo(arena+hblkhd)
          2809 MiB available memory on the node where the printing process lives
------------------
     ethr =  3.60E-05,  avg # of iterations =  6.9

     total cpu time spent up to now is       52.0 secs

     total energy              =   -1411.10467367 Ry
     estimated scf accuracy    <       0.08766167 Ry

     total magnetization       =     0.00 Bohr mag/cell
     absolute magnetization    =    17.66 Bohr mag/cell

     iteration #  5     ecut=    30.00 Ry     beta= 0.70
     Davidson diagonalization with overlap

---- Real-time Memory Report at c_bands before calling an iterative solver
            93 MiB given to the printing process from OS
             0 MiB allocation reported by mallinfo(arena+hblkhd)
          2808 MiB available memory on the node where the printing process lives
------------------
     ethr =  3.60E-05,  avg # of iterations =  4.5

     total cpu time spent up to now is       60.6 secs

     total energy              =   -1411.11442599 Ry
     estimated scf accuracy    <       0.01004846 Ry

     total magnetization       =    -0.00 Bohr mag/cell
     absolute magnetization    =    17.88 Bohr mag/cell

     iteration #  6     ecut=    30.00 Ry     beta= 0.70
     Davidson diagonalization with overlap

---- Real-time Memory Report at c_bands before calling an iterative solver
            94 MiB given to the printing process from OS
             0 MiB allocation reported by mallinfo(arena+hblkhd)
          2806 MiB available memory on the node where the printing process lives
------------------
     ethr =  1.20E-05,  avg # of iterations =  5.2

     total cpu time spent up to now is       69.7 secs

     total energy              =   -1411.11605030 Ry
     estimated scf accuracy    <       0.00358332 Ry

     total magnetization       =     0.00 Bohr mag/cell
     absolute magnetization    =    17.88 Bohr mag/cell

     iteration #  7     ecut=    30.00 Ry     beta= 0.70
     Davidson diagonalization with overlap

---- Real-time Memory Report at c_bands before calling an iterative solver
            94 MiB given to the printing process from OS
             0 MiB allocation reported by mallinfo(arena+hblkhd)
          2808 MiB available memory on the node where the printing process lives
------------------
     ethr =  4.27E-06,  avg # of iterations =  6.3

     total cpu time spent up to now is       79.9 secs

     total energy              =   -1411.11659299 Ry
     estimated scf accuracy    <       0.00294410 Ry

     total magnetization       =    -0.00 Bohr mag/cell
     absolute magnetization    =    17.90 Bohr mag/cell

     iteration #  8     ecut=    30.00 Ry     beta= 0.70
     Davidson diagonalization with overlap

---- Real-time Memory Report at c_bands before calling an iterative solver
            94 MiB given to the printing process from OS
             0 MiB allocation reported by mallinfo(arena+hblkhd)
          2806 MiB available memory on the node where the printing process lives
------------------
     c_bands:  1 eigenvalues not converged
     ethr =  3.50E-06,  avg # of iterations =  3.3

     total cpu time spent up to now is       88.1 secs

     total energy              =   -1411.11690864 Ry
     estimated scf accuracy    <       0.00036878 Ry

     total magnetization       =    -0.00 Bohr mag/cell
     absolute magnetization    =    17.93 Bohr mag/cell

     iteration #  9     ecut=    30.00 Ry     beta= 0.70
     Davidson diagonalization with overlap

---- Real-time Memory Report at c_bands before calling an iterative solver
            95 MiB given to the printing process from OS
             0 MiB allocation reported by mallinfo(arena+hblkhd)
          2841 MiB available memory on the node where the printing process lives
------------------
     ethr =  4.39E-07,  avg # of iterations =  3.8

     total cpu time spent up to now is       97.5 secs

     total energy              =   -1411.11696876 Ry
     estimated scf accuracy    <       0.00002843 Ry

     total magnetization       =    -0.00 Bohr mag/cell
     absolute magnetization    =    17.94 Bohr mag/cell

     iteration # 10     ecut=    30.00 Ry     beta= 0.70
     Davidson diagonalization with overlap

---- Real-time Memory Report at c_bands before calling an iterative solver
            95 MiB given to the printing process from OS
             0 MiB allocation reported by mallinfo(arena+hblkhd)
          2741 MiB available memory on the node where the printing process lives
------------------
     ethr =  3.38E-08,  avg # of iterations =  5.7

     total cpu time spent up to now is      108.5 secs

     total energy              =   -1411.11697716 Ry
     estimated scf accuracy    <       0.00000467 Ry

     total magnetization       =    -0.00 Bohr mag/cell
     absolute magnetization    =    17.94 Bohr mag/cell

     iteration # 11     ecut=    30.00 Ry     beta= 0.70
     Davidson diagonalization with overlap

---- Real-time Memory Report at c_bands before calling an iterative solver
            95 MiB given to the printing process from OS
             0 MiB allocation reported by mallinfo(arena+hblkhd)
          2753 MiB available memory on the node where the printing process lives
------------------
     ethr =  5.56E-09,  avg # of iterations =  3.4

     total cpu time spent up to now is      117.7 secs

     total energy              =   -1411.11697799 Ry
     estimated scf accuracy    <       0.00000090 Ry

     total magnetization       =     0.00 Bohr mag/cell
     absolute magnetization    =    17.94 Bohr mag/cell

     iteration # 12     ecut=    30.00 Ry     beta= 0.70
     Davidson diagonalization with overlap

---- Real-time Memory Report at c_bands before calling an iterative solver
            95 MiB given to the printing process from OS
             0 MiB allocation reported by mallinfo(arena+hblkhd)
          2761 MiB available memory on the node where the printing process lives
------------------
     ethr =  1.07E-09,  avg # of iterations =  3.9

     total cpu time spent up to now is      127.4 secs

     total energy              =   -1411.11697820 Ry
     estimated scf accuracy    <       0.00000007 Ry

     total magnetization       =     0.00 Bohr mag/cell
     absolute magnetization    =    17.94 Bohr mag/cell

     iteration # 13     ecut=    30.00 Ry     beta= 0.70
     Davidson diagonalization with overlap

---- Real-time Memory Report at c_bands before calling an iterative solver
            95 MiB given to the printing process from OS
             0 MiB allocation reported by mallinfo(arena+hblkhd)
          2824 MiB available memory on the node where the printing process lives
------------------
     ethr =  8.40E-11,  avg # of iterations =  4.8

     total cpu time spent up to now is      139.4 secs

     total energy              =   -1411.11697823 Ry
     estimated scf accuracy    <       0.00000004 Ry

     total magnetization       =     0.00 Bohr mag/cell
     absolute magnetization    =    17.94 Bohr mag/cell

     iteration # 14     ecut=    30.00 Ry     beta= 0.70
     Davidson diagonalization with overlap

---- Real-time Memory Report at c_bands before calling an iterative solver
            95 MiB given to the printing process from OS
             0 MiB allocation reported by mallinfo(arena+hblkhd)
          2816 MiB available memory on the node where the printing process lives
------------------
     ethr =  4.54E-11,  avg # of iterations =  2.5

     total cpu time spent up to now is      147.8 secs

     total energy              =   -1411.11697824 Ry
     estimated scf accuracy    <          6.6E-09 Ry

     total magnetization       =    -0.00 Bohr mag/cell
     absolute magnetization    =    17.94 Bohr mag/cell

     iteration # 15     ecut=    30.00 Ry     beta= 0.70
     Davidson diagonalization with overlap

---- Real-time Memory Report at c_bands before calling an iterative solver
            95 MiB given to the printing process from OS
             0 MiB allocation reported by mallinfo(arena+hblkhd)
          2828 MiB available memory on the node where the printing process lives
------------------
     ethr =  7.90E-12,  avg # of iterations =  3.4

     total cpu time spent up to now is      157.1 secs

     total energy              =   -1411.11697824 Ry
     estimated scf accuracy    <          1.4E-09 Ry

     total magnetization       =    -0.00 Bohr mag/cell
     absolute magnetization    =    17.94 Bohr mag/cell

     iteration # 16     ecut=    30.00 Ry     beta= 0.70
     Davidson diagonalization with overlap

---- Real-time Memory Report at c_bands before calling an iterative solver
            95 MiB given to the printing process from OS
             0 MiB allocation reported by mallinfo(arena+hblkhd)
          2827 MiB available memory on the node where the printing process lives
------------------
     ethr =  1.66E-12,  avg # of iterations =  3.0

     total cpu time spent up to now is      165.7 secs

     total energy              =   -1411.11697824 Ry
     estimated scf accuracy    <          1.3E-10 Ry

     total magnetization       =     0.00 Bohr mag/cell
     absolute magnetization    =    17.94 Bohr mag/cell

     iteration # 17     ecut=    30.00 Ry     beta= 0.70
     Davidson diagonalization with overlap

---- Real-time Memory Report at c_bands before calling an iterative solver
            95 MiB given to the printing process from OS
             0 MiB allocation reported by mallinfo(arena+hblkhd)
          2822 MiB available memory on the node where the printing process lives
------------------
     ethr =  1.52E-13,  avg # of iterations =  4.8

     Magnetic moment per site  (integrated on atomic sphere of radius R)
     atom   1 (R=0.123)  charge= 12.7882  magn=  3.8618
     atom   2 (R=0.123)  charge= 12.7882  magn=  3.8618
     atom   3 (R=0.123)  charge= 12.7882  magn= -3.8618
     atom   4 (R=0.123)  charge= 12.7882  magn= -3.8618
     atom   5 (R=0.123)  charge=  3.9422  magn= -0.0524
     atom   6 (R=0.123)  charge=  3.9422  magn= -0.0524
     atom   7 (R=0.123)  charge=  3.9422  magn=  0.0524
     atom   8 (R=0.123)  charge=  3.9422  magn=  0.0524

     total cpu time spent up to now is      176.8 secs

     End of self-consistent calculation

 ------ SPIN UP ------------


          k = 0.0000 0.0000 0.0000 (  3203 PWs)   bands (ev):

   -74.4036 -74.4032 -70.0028 -70.0025 -43.1509 -43.1490 -43.1487 -43.1485
   -43.0830 -43.0825 -38.8070 -38.8064 -38.7831 -38.7803 -38.7796 -38.7795
    -6.1273  -5.4426  -5.4061  -5.1887   2.0544   2.1899   2.3578   3.1491
     3.1496   3.3109   3.4118   3.5004   3.9003   4.1575   4.1580   4.2325
     5.1187   5.1619   5.1678   5.1687   5.3653   6.1614   6.4751   6.5023
     7.3639   7.3642   8.4413   8.7640   8.7835   8.7839   8.9611   9.2873
     9.3939   9.6392

     occupation numbers 
     1.0000   1.0000   1.0000   1.0000   1.0000   1.0000   1.0000   1.0000
     1.0000   1.0000   1.0000   1.0000   1.0000   1.0000   1.0000   1.0000
     1.0000   1.0000   1.0000   1.0000   1.0000   1.0000   1.0000   1.0000
     1.0000   1.0000   1.0000   1.0000   1.0000   1.0000   1.0000   1.0000
     1.0000   1.0000   1.0000   1.0000   1.0000   1.0000   1.0000   1.0000
     1.0000   1.0000   0.0000   0.0000   0.0000   0.0000   0.0000   0.0000
     0.0000   0.0000

          k = 0.0000 0.0000 0.4899 (  3184 PWs)   bands (ev):

   -74.4034 -74.4032 -70.0027 -70.0025 -43.1504 -43.1495 -43.1494 -43.1487
   -43.0827 -43.0826 -38.8066 -38.8064 -38.7825 -38.7809 -38.7808 -38.7798
    -5.9075  -5.3874  -5.3381  -5.2548   2.3191   2.4234   2.5752   2.8785
     3.2294   3.2513   3.3595   3.5242   3.7660   3.7839   3.9345   4.1619
     4.8720   5.0296   5.1510   5.2375   5.6079   6.0989   6.1395   6.3143
     6.6780   7.0451   8.3461   8.6320   8.6943   8.7641   9.0011   9.3140
     9.4587   9.6509

     occupation numbers 
     1.0000   1.0000   1.0000   1.0000   1.0000   1.0000   1.0000   1.0000
     1.0000   1.0000   1.0000   1.0000   1.0000   1.0000   1.0000   1.0000
     1.0000   1.0000   1.0000   1.0000   1.0000   1.0000   1.0000   1.0000
     1.0000   1.0000   1.0000   1.0000   1.0000   1.0000   1.0000   1.0000
     1.0000   1.0000   1.0000   1.0000   1.0000   1.0000   1.0000   1.0000
     1.0000   1.0000   0.0000   0.0000   0.0000   0.0000   0.0000   0.0000
     0.0000   0.0000

          k = 0.0000 0.0000 0.9798 (  3151 PWs)   bands (ev):

   -74.4032 -74.4031 -70.0024 -70.0024 -43.1506 -43.1506 -43.1492 -43.1489
   -43.0825 -43.0824 -38.8064 -38.8063 -38.7828 -38.7827 -38.7804 -38.7802
    -5.5149  -5.4253  -5.2125  -5.2097   2.1455   2.1457   2.4364   2.4696
     3.3584   3.3945   3.4769   3.5091   3.8540   3.8844   4.1123   4.2176
     5.0000   5.0005   5.1370   5.1910   5.5248   5.5972   6.1106   6.2043
     6.4719   6.5943   8.3874   8.4262   8.6895   8.9156   8.9693   9.0464
     9.3167   9.4109

     occupation numbers 
     1.0000   1.0000   1.0000   1.0000   1.0000   1.0000   1.0000   1.0000
     1.0000   1.0000   1.0000   1.0000   1.0000   1.0000   1.0000   1.0000
     1.0000   1.0000   1.0000   1.0000   1.0000   1.0000   1.0000   1.0000
     1.0000   1.0000   1.0000   1.0000   1.0000   1.0000   1.0000   1.0000
     1.0000   1.0000   1.0000   1.0000   1.0000   1.0000   1.0000   1.0000
     1.0000   1.0000   0.0000   0.0000   0.0000   0.0000   0.0000   0.0000
     0.0000   0.0000

          k = 0.0000 0.3849-0.1361 (  3185 PWs)   bands (ev):

   -74.4034 -74.4033 -70.0026 -70.0025 -43.1503 -43.1492 -43.1490 -43.1485
   -43.0827 -43.0826 -38.8067 -38.8065 -38.7822 -38.7804 -38.7801 -38.7796
    -5.9695  -5.6290  -5.3572  -5.2495   2.2732   2.3855   2.6229   2.9475
     3.2307   3.3560   3.3572   3.4205   3.7645   3.8645   4.1677   4.1898
     4.9405   5.0686   5.1232   5.1673   5.7541   6.2519   6.2953   6.7236
     6.8222   7.1371   8.4259   8.6756   8.7819   8.8236   9.0838   9.6046
     9.6180   9.9033

     occupation numbers 
     1.0000   1.0000   1.0000   1.0000   1.0000   1.0000   1.0000   1.0000
     1.0000   1.0000   1.0000   1.0000   1.0000   1.0000   1.0000   1.0000
     1.0000   1.0000   1.0000   1.0000   1.0000   1.0000   1.0000   1.0000
     1.0000   1.0000   1.0000   1.0000   1.0000   1.0000   1.0000   1.0000
     1.0000   1.0000   1.0000   1.0000   1.0000   1.0000   1.0000   1.0000
     1.0000   1.0000   0.0000   0.0000   0.0000   0.0000   0.0000   0.0000
     0.0000   0.0000

          k = 0.0000 0.3849 0.3538 (  3165 PWs)   bands (ev):

   -74.4034 -74.4031 -70.0026 -70.0024 -43.1505 -43.1494 -43.1492 -43.1487
   -43.0827 -43.0824 -38.8067 -38.8063 -38.7826 -38.7809 -38.7805 -38.7797
    -5.8752  -5.4187  -5.4122  -5.1870   2.4563   2.5202   2.7375   2.8264
     3.1212   3.2410   3.3488   3.4115   3.6014   3.8301   4.0346   4.1743
     4.8852   5.0389   5.1197   5.2365   5.4993   5.8305   6.2588   6.3265
     6.7528   7.0695   8.3477   8.5803   8.8167   8.8762   9.1025   9.1273
     9.5540   9.7509

     occupation numbers 
     1.0000   1.0000   1.0000   1.0000   1.0000   1.0000   1.0000   1.0000
     1.0000   1.0000   1.0000   1.0000   1.0000   1.0000   1.0000   1.0000
     1.0000   1.0000   1.0000   1.0000   1.0000   1.0000   1.0000   1.0000
     1.0000   1.0000   1.0000   1.0000   1.0000   1.0000   1.0000   1.0000
     1.0000   1.0000   1.0000   1.0000   1.0000   1.0000   1.0000   1.0000
     1.0000   1.0000   0.0000   0.0000   0.0000   0.0000   0.0000   0.0000
     0.0000   0.0000

          k = 0.0000 0.3849 0.8437 (  3166 PWs)   bands (ev):

   -74.4032 -74.4032 -70.0025 -70.0024 -43.1504 -43.1501 -43.1498 -43.1491
   -43.0826 -43.0825 -38.8065 -38.8064 -38.7825 -38.7820 -38.7814 -38.7804
    -5.5213  -5.3352  -5.3167  -5.2041   2.3535   2.4603   2.6099   2.6829
     3.0874   3.2795   3.4775   3.4934   3.5930   3.8042   3.9005   4.0472
     4.7649   4.9092   5.1789   5.2297   5.7130   5.8078   5.8853   6.1275
     6.2567   6.5721   8.2482   8.3725   8.6309   8.7633   9.0971   9.0986
     9.2683   9.4525

     occupation numbers 
     1.0000   1.0000   1.0000   1.0000   1.0000   1.0000   1.0000   1.0000
     1.0000   1.0000   1.0000   1.0000   1.0000   1.0000   1.0000   1.0000
     1.0000   1.0000   1.0000   1.0000   1.0000   1.0000   1.0000   1.0000
     1.0000   1.0000   1.0000   1.0000   1.0000   1.0000   1.0000   1.0000
     1.0000   1.0000   1.0000   1.0000   1.0000   1.0000   1.0000   1.0000
     1.0000   1.0000   0.0000   0.0000   0.0000   0.0000   0.0000   0.0000
     0.0000   0.0000

          k = 0.0000 0.3849-1.1159 (  3158 PWs)   bands (ev):

   -74.4032 -74.4031 -70.0025 -70.0024 -43.1506 -43.1503 -43.1494 -43.1490
   -43.0826 -43.0825 -38.8065 -38.8063 -38.7828 -38.7824 -38.7808 -38.7802
    -5.4616  -5.3898  -5.3292  -5.1940   2.2389   2.3009   2.5455   2.5825
     3.2207   3.3496   3.4254   3.5106   3.7042   3.8285   4.0276   4.1712
     4.9015   4.9749   5.1478   5.2147   5.5522   5.7389   5.8903   6.2378
     6.3282   6.6101   8.3815   8.4361   8.6991   8.8116   9.0015   9.0943
     9.2084   9.3661

     occupation numbers 
     1.0000   1.0000   1.0000   1.0000   1.0000   1.0000   1.0000   1.0000
     1.0000   1.0000   1.0000   1.0000   1.0000   1.0000   1.0000   1.0000
     1.0000   1.0000   1.0000   1.0000   1.0000   1.0000   1.0000   1.0000
     1.0000   1.0000   1.0000   1.0000   1.0000   1.0000   1.0000   1.0000
     1.0000   1.0000   1.0000   1.0000   1.0000   1.0000   1.0000   1.0000
     1.0000   1.0000   0.0000   0.0000   0.0000   0.0000   0.0000   0.0000
     0.0000   0.0000

          k = 0.0000 0.3849-0.6260 (  3178 PWs)   bands (ev):

   -74.4033 -74.4033 -70.0026 -70.0025 -43.1501 -43.1499 -43.1490 -43.1490
   -43.0827 -43.0826 -38.8066 -38.8065 -38.7819 -38.7816 -38.7803 -38.7801
    -5.6862  -5.6198  -5.3830  -5.2250   2.4731   2.6171   2.6737   2.7751
     3.2076   3.2617   3.3707   3.4196   3.4985   3.7542   4.1115   4.1252
     4.9354   5.0155   5.1253   5.1402   5.6616   6.0065   6.2000   6.3830
     6.6710   6.7334   8.4614   8.5568   8.7552   8.8509   9.1805   9.2250
     9.3930   9.5902

     occupation numbers 
     1.0000   1.0000   1.0000   1.0000   1.0000   1.0000   1.0000   1.0000
     1.0000   1.0000   1.0000   1.0000   1.0000   1.0000   1.0000   1.0000
     1.0000   1.0000   1.0000   1.0000   1.0000   1.0000   1.0000   1.0000
     1.0000   1.0000   1.0000   1.0000   1.0000   1.0000   1.0000   1.0000
     1.0000   1.0000   1.0000   1.0000   1.0000   1.0000   1.0000   1.0000
     1.0000   1.0000   0.0000   0.0000   0.0000   0.0000   0.0000   0.0000
     0.0000   0.0000

          k = 0.3333 0.1925-0.2722 (  3186 PWs)   bands (ev):

   -74.4034 -74.4033 -70.0027 -70.0025 -43.1502 -43.1491 -43.1489 -43.1486
   -43.0827 -43.0826 -38.8067 -38.8065 -38.7821 -38.7804 -38.7801 -38.7797
    -5.9187  -5.5052  -5.4198  -5.3838   2.3052   2.4770   2.6099   2.8798
     3.2312   3.3401   3.3553   3.3668   3.7961   3.8702   4.1744   4.1961
     4.9805   5.0541   5.0963   5.1239   5.8751   6.2895   6.2967   6.7241
     6.8286   7.1189   8.4474   8.5965   8.8381   8.8824   9.0401   9.4606
     9.6154   9.8431

     occupation numbers 
     1.0000   1.0000   1.0000   1.0000   1.0000   1.0000   1.0000   1.0000
     1.0000   1.0000   1.0000   1.0000   1.0000   1.0000   1.0000   1.0000
     1.0000   1.0000   1.0000   1.0000   1.0000   1.0000   1.0000   1.0000
     1.0000   1.0000   1.0000   1.0000   1.0000   1.0000   1.0000   1.0000
     1.0000   1.0000   1.0000   1.0000   1.0000   1.0000   1.0000   1.0000
     1.0000   1.0000   0.0000   0.0000   0.0000   0.0000   0.0000   0.0000
     0.0000   0.0000

          k = 0.3333 0.1925 0.2177 (  3178 PWs)   bands (ev):

   -74.4034 -74.4032 -70.0026 -70.0024 -43.1506 -43.1494 -43.1492 -43.1487
   -43.0827 -43.0825 -38.8067 -38.8064 -38.7826 -38.7809 -38.7805 -38.7797
    -5.9446  -5.3775  -5.3354  -5.2210   2.3110   2.4158   2.5658   2.9130
     3.2206   3.2420   3.3634   3.5466   3.7500   3.7923   3.9180   4.1603
     4.8571   5.0564   5.1616   5.2279   5.6144   5.9938   6.1714   6.3057
     6.7480   7.0794   8.3313   8.6445   8.6509   8.7851   9.0486   9.3021
     9.5418   9.6083

     occupation numbers 
     1.0000   1.0000   1.0000   1.0000   1.0000   1.0000   1.0000   1.0000
     1.0000   1.0000   1.0000   1.0000   1.0000   1.0000   1.0000   1.0000
     1.0000   1.0000   1.0000   1.0000   1.0000   1.0000   1.0000   1.0000
     1.0000   1.0000   1.0000   1.0000   1.0000   1.0000   1.0000   1.0000
     1.0000   1.0000   1.0000   1.0000   1.0000   1.0000   1.0000   1.0000
     1.0000   1.0000   0.0000   0.0000   0.0000   0.0000   0.0000   0.0000
     0.0000   0.0000

          k = 0.3333 0.1925 0.7076 (  3164 PWs)   bands (ev):

   -74.4032 -74.4031 -70.0025 -70.0024 -43.1504 -43.1502 -43.1498 -43.1492
   -43.0825 -43.0825 -38.8064 -38.8063 -38.7825 -38.7821 -38.7814 -38.7804
    -5.6220  -5.3429  -5.2091  -5.1982   2.5592   2.6223   2.8075   2.8466
     2.9567   3.1719   3.2496   3.3750   3.5127   3.6085   3.9644   4.1039
     4.7646   4.9928   5.1470   5.2492   5.5743   5.6452   5.7437   6.0922
     6.1505   6.5933   8.2430   8.5113   8.7522   8.8730   9.0742   9.1144
     9.1727   9.3049

     occupation numbers 
     1.0000   1.0000   1.0000   1.0000   1.0000   1.0000   1.0000   1.0000
     1.0000   1.0000   1.0000   1.0000   1.0000   1.0000   1.0000   1.0000
     1.0000   1.0000   1.0000   1.0000   1.0000   1.0000   1.0000   1.0000
     1.0000   1.0000   1.0000   1.0000   1.0000   1.0000   1.0000   1.0000
     1.0000   1.0000   1.0000   1.0000   1.0000   1.0000   1.0000   1.0000
     1.0000   1.0000   0.0000   0.0000   0.0000   0.0000   0.0000   0.0000
     0.0000   0.0000

          k = 0.3333 0.1925-1.2520 (  3156 PWs)   bands (ev):

   -74.4032 -74.4032 -70.0024 -70.0024 -43.1507 -43.1504 -43.1494 -43.1490
   -43.0825 -43.0825 -38.8064 -38.8063 -38.7828 -38.7824 -38.7808 -38.7802
    -5.5709  -5.3790  -5.2114  -5.2048   2.2711   2.2755   2.5514   2.6084
     3.2380   3.3448   3.4603   3.5190   3.7166   3.7497   4.0021   4.1756
     4.8931   4.9693   5.1433   5.2182   5.5673   5.6250   5.9334   6.1667
     6.3231   6.6203   8.3933   8.4326   8.6406   8.8700   9.0758   9.0830
     9.2466   9.4585

     occupation numbers 
     1.0000   1.0000   1.0000   1.0000   1.0000   1.0000   1.0000   1.0000
     1.0000   1.0000   1.0000   1.0000   1.0000   1.0000   1.0000   1.0000
     1.0000   1.0000   1.0000   1.0000   1.0000   1.0000   1.0000   1.0000
     1.0000   1.0000   1.0000   1.0000   1.0000   1.0000   1.0000   1.0000
     1.0000   1.0000   1.0000   1.0000   1.0000   1.0000   1.0000   1.0000
     1.0000   1.0000   0.0000   0.0000   0.0000   0.0000   0.0000   0.0000
     0.0000   0.0000

          k = 0.3333 0.1925-0.7621 (  3171 PWs)   bands (ev):

   -74.4033 -74.4033 -70.0025 -70.0025 -43.1501 -43.1498 -43.1490 -43.1490
   -43.0826 -43.0826 -38.8065 -38.8065 -38.7818 -38.7816 -38.7803 -38.7801
    -5.6539  -5.5787  -5.3448  -5.3423   2.4058   2.4274   2.6465   2.6830
     3.2709   3.2742   3.4369   3.4567   3.7863   3.7924   4.0843   4.1178
     4.9164   4.9397   5.1305   5.1523   5.9155   5.9961   6.3125   6.3700
     6.6530   6.7548   8.4133   8.4647   8.7528   8.7531   9.1694   9.2357
     9.5261   9.6328

     occupation numbers 
     1.0000   1.0000   1.0000   1.0000   1.0000   1.0000   1.0000   1.0000
     1.0000   1.0000   1.0000   1.0000   1.0000   1.0000   1.0000   1.0000
     1.0000   1.0000   1.0000   1.0000   1.0000   1.0000   1.0000   1.0000
     1.0000   1.0000   1.0000   1.0000   1.0000   1.0000   1.0000   1.0000
     1.0000   1.0000   1.0000   1.0000   1.0000   1.0000   1.0000   1.0000
     1.0000   1.0000   0.0000   0.0000   0.0000   0.0000   0.0000   0.0000
     0.0000   0.0000

          k = 0.3333-0.5774 0.0000 (  3195 PWs)   bands (ev):

   -74.4035 -74.4033 -70.0027 -70.0025 -43.1503 -43.1492 -43.1489 -43.1486
   -43.0827 -43.0826 -38.8067 -38.8065 -38.7822 -38.7804 -38.7801 -38.7797
    -5.7679  -5.6367  -5.5883  -5.2447   2.5018   2.5446   2.7648   2.9240
     3.0993   3.2294   3.3222   3.3437   3.4726   4.0192   4.1911   4.1982
     4.9753   5.0055   5.0910   5.1402   5.6083   6.2394   6.4811   6.6834
     6.7404   7.1378   8.5018   8.6452   8.8103   8.9246   9.1478   9.2876
     9.5447   9.7167

     occupation numbers 
     1.0000   1.0000   1.0000   1.0000   1.0000   1.0000   1.0000   1.0000
     1.0000   1.0000   1.0000   1.0000   1.0000   1.0000   1.0000   1.0000
     1.0000   1.0000   1.0000   1.0000   1.0000   1.0000   1.0000   1.0000
     1.0000   1.0000   1.0000   1.0000   1.0000   1.0000   1.0000   1.0000
     1.0000   1.0000   1.0000   1.0000   1.0000   1.0000   1.0000   1.0000
     1.0000   1.0000   0.0000   0.0000   0.0000   0.0000   0.0000   0.0000
     0.0000   0.0000

          k = 0.3333-0.5774 0.4899 (  3179 PWs)   bands (ev):

   -74.4033 -74.4033 -70.0025 -70.0025 -43.1501 -43.1498 -43.1490 -43.1490
   -43.0826 -43.0826 -38.8065 -38.8065 -38.7818 -38.7816 -38.7803 -38.7801
    -5.7447  -5.5959  -5.3247  -5.2441   2.4582   2.6403   2.6792   2.7476
     3.2441   3.2471   3.3779   3.4409   3.4872   3.6974   4.1020   4.1275
     4.9333   5.0290   5.1429   5.1450   5.7577   5.8509   6.2941   6.3298
     6.6497   6.7393   8.4361   8.5772   8.7711   8.8433   9.1799   9.2596
     9.4995   9.5143

     occupation numbers 
     1.0000   1.0000   1.0000   1.0000   1.0000   1.0000   1.0000   1.0000
     1.0000   1.0000   1.0000   1.0000   1.0000   1.0000   1.0000   1.0000
     1.0000   1.0000   1.0000   1.0000   1.0000   1.0000   1.0000   1.0000
     1.0000   1.0000   1.0000   1.0000   1.0000   1.0000   1.0000   1.0000
     1.0000   1.0000   1.0000   1.0000   1.0000   1.0000   1.0000   1.0000
     1.0000   1.0000   0.0000   0.0000   0.0000   0.0000   0.0000   0.0000
     0.0000   0.0000

          k = 0.3333-0.5774 0.9798 (  3173 PWs)   bands (ev):

   -74.4033 -74.4032 -70.0025 -70.0024 -43.1507 -43.1504 -43.1493 -43.1491
   -43.0826 -43.0825 -38.8065 -38.8064 -38.7828 -38.7825 -38.7808 -38.7803
    -5.5458  -5.3511  -5.2440  -5.2385   2.4548   2.4883   2.8689   2.9609
     3.0059   3.0598   3.2281   3.3591   3.5094   3.5903   4.1048   4.1852
     4.9172   5.0116   5.1446   5.2395   5.4543   5.5121   5.7956   6.0857
     6.2631   6.5802   8.3449   8.4946   8.8743   8.9348   9.0077   9.0659
     9.1295   9.2997

     occupation numbers 
     1.0000   1.0000   1.0000   1.0000   1.0000   1.0000   1.0000   1.0000
     1.0000   1.0000   1.0000   1.0000   1.0000   1.0000   1.0000   1.0000
     1.0000   1.0000   1.0000   1.0000   1.0000   1.0000   1.0000   1.0000
     1.0000   1.0000   1.0000   1.0000   1.0000   1.0000   1.0000   1.0000
     1.0000   1.0000   1.0000   1.0000   1.0000   1.0000   1.0000   1.0000
     1.0000   1.0000   0.0000   0.0000   0.0000   0.0000   0.0000   0.0000
     0.0000   0.0000

          k =-0.3333 0.1925 0.1361 (  3185 PWs)   bands (ev):

   -74.4035 -74.4032 -70.0027 -70.0024 -43.1508 -43.1490 -43.1486 -43.1484
   -43.0829 -43.0825 -38.8069 -38.8064 -38.7830 -38.7803 -38.7795 -38.7794
    -5.9726  -5.5935  -5.3996  -5.2406   2.2410   2.4340   2.5940   3.1030
     3.1635   3.1639   3.3344   3.4091   3.6143   4.2001   4.2007   4.2358
     5.0965   5.0974   5.1417   5.1937   5.3522   5.8557   6.4942   6.4975
     7.3408   7.3413   8.5877   8.8910   8.8913   8.9400   9.0354   9.0487
     9.4156   9.5132

     occupation numbers 
     1.0000   1.0000   1.0000   1.0000   1.0000   1.0000   1.0000   1.0000
     1.0000   1.0000   1.0000   1.0000   1.0000   1.0000   1.0000   1.0000
     1.0000   1.0000   1.0000   1.0000   1.0000   1.0000   1.0000   1.0000
     1.0000   1.0000   1.0000   1.0000   1.0000   1.0000   1.0000   1.0000
     1.0000   1.0000   1.0000   1.0000   1.0000   1.0000   1.0000   1.0000
     1.0000   1.0000   0.0000   0.0000   0.0000   0.0000   0.0000   0.0000
     0.0000   0.0000

          k =-0.3333 0.1925-0.3538 (  3165 PWs)   bands (ev):

   -74.4034 -74.4031 -70.0026 -70.0024 -43.1504 -43.1494 -43.1493 -43.1487
   -43.0827 -43.0824 -38.8066 -38.8063 -38.7824 -38.7808 -38.7807 -38.7798
    -5.8747  -5.4520  -5.3779  -5.1883   2.4506   2.5387   2.7209   2.8102
     3.1549   3.2565   3.3589   3.4537   3.5839   3.7388   4.0416   4.1722
     4.9078   5.0454   5.1315   5.2281   5.4825   5.9033   6.1585   6.3908
     6.7076   7.0385   8.3588   8.5641   8.8396   8.8825   9.0782   9.1824
     9.5496   9.8012

     occupation numbers 
     1.0000   1.0000   1.0000   1.0000   1.0000   1.0000   1.0000   1.0000
     1.0000   1.0000   1.0000   1.0000   1.0000   1.0000   1.0000   1.0000
     1.0000   1.0000   1.0000   1.0000   1.0000   1.0000   1.0000   1.0000
     1.0000   1.0000   1.0000   1.0000   1.0000   1.0000   1.0000   1.0000
     1.0000   1.0000   1.0000   1.0000   1.0000   1.0000   1.0000   1.0000
     1.0000   1.0000   0.0000   0.0000   0.0000   0.0000   0.0000   0.0000
     0.0000   0.0000

          k =-0.3333 0.1925-0.8437 (  3166 PWs)   bands (ev):

   -74.4032 -74.4032 -70.0025 -70.0024 -43.1506 -43.1506 -43.1493 -43.1490
   -43.0825 -43.0825 -38.8064 -38.8064 -38.7828 -38.7827 -38.7805 -38.7802
    -5.5153  -5.3801  -5.2638  -5.2184   2.3517   2.3714   2.7282   2.7980
     3.1737   3.2240   3.3714   3.3787   3.4759   3.5948   4.1756   4.2142
     5.0256   5.0503   5.1459   5.2237   5.4148   5.4664   5.8649   6.0151
     6.4113   6.5604   8.4823   8.5190   8.9138   8.9660   8.9884   9.0350
     9.1411   9.3042

     occupation numbers 
     1.0000   1.0000   1.0000   1.0000   1.0000   1.0000   1.0000   1.0000
     1.0000   1.0000   1.0000   1.0000   1.0000   1.0000   1.0000   1.0000
     1.0000   1.0000   1.0000   1.0000   1.0000   1.0000   1.0000   1.0000
     1.0000   1.0000   1.0000   1.0000   1.0000   1.0000   1.0000   1.0000
     1.0000   1.0000   1.0000   1.0000   1.0000   1.0000   1.0000   1.0000
     1.0000   1.0000   0.0000   0.0000   0.0000   0.0000   0.0000   0.0000
     0.0000   0.0000

          k =-0.3333 0.1925 1.1159 (  3158 PWs)   bands (ev):

   -74.4032 -74.4031 -70.0024 -70.0024 -43.1506 -43.1506 -43.1492 -43.1490
   -43.0825 -43.0825 -38.8064 -38.8064 -38.7828 -38.7827 -38.7805 -38.7802
    -5.4416  -5.4258  -5.3106  -5.1966   2.2367   2.2806   2.5712   2.6124
     3.2883   3.3281   3.3951   3.4492   3.6356   3.7494   4.1649   4.2170
     5.0163   5.0750   5.1338   5.1845   5.4359   5.6031   5.9128   6.0876
     6.4390   6.5902   8.4647   8.5459   8.8822   8.9108   8.9379   9.0851
     9.1130   9.2313

     occupation numbers 
     1.0000   1.0000   1.0000   1.0000   1.0000   1.0000   1.0000   1.0000
     1.0000   1.0000   1.0000   1.0000   1.0000   1.0000   1.0000   1.0000
     1.0000   1.0000   1.0000   1.0000   1.0000   1.0000   1.0000   1.0000
     1.0000   1.0000   1.0000   1.0000   1.0000   1.0000   1.0000   1.0000
     1.0000   1.0000   1.0000   1.0000   1.0000   1.0000   1.0000   1.0000
     1.0000   1.0000   0.0000   0.0000   0.0000   0.0000   0.0000   0.0000
     0.0000   0.0000

          k =-0.3333 0.1925 0.6260 (  3178 PWs)   bands (ev):

   -74.4034 -74.4031 -70.0027 -70.0024 -43.1504 -43.1495 -43.1494 -43.1486
   -43.0827 -43.0825 -38.8067 -38.8064 -38.7825 -38.7808 -38.7808 -38.7797
    -5.7120  -5.5585  -5.4230  -5.2208   2.5153   2.5228   2.7161   2.8331
     3.0683   3.2564   3.3137   3.3515   3.5815   3.9616   4.0682   4.1913
     4.9164   4.9406   5.0855   5.2578   5.4413   5.9350   6.3297   6.4695
     6.5550   7.0591   8.3443   8.5526   8.7919   8.8695   9.0132   9.1919
     9.2419   9.7491

     occupation numbers 
     1.0000   1.0000   1.0000   1.0000   1.0000   1.0000   1.0000   1.0000
     1.0000   1.0000   1.0000   1.0000   1.0000   1.0000   1.0000   1.0000
     1.0000   1.0000   1.0000   1.0000   1.0000   1.0000   1.0000   1.0000
     1.0000   1.0000   1.0000   1.0000   1.0000   1.0000   1.0000   1.0000
     1.0000   1.0000   1.0000   1.0000   1.0000   1.0000   1.0000   1.0000
     1.0000   1.0000   0.0000   0.0000   0.0000   0.0000   0.0000   0.0000
     0.0000   0.0000

          k = 0.3333-0.5774-0.4899 (  3179 PWs)   bands (ev):

   -74.4035 -74.4031 -70.0027 -70.0024 -43.1506 -43.1494 -43.1493 -43.1487
   -43.0827 -43.0825 -38.8067 -38.8064 -38.7826 -38.7809 -38.7806 -38.7797
    -5.7573  -5.5502  -5.3709  -5.2315   2.4989   2.5179   2.7512   2.8294
     3.0483   3.2434   3.3040   3.3421   3.6008   3.9839   4.0553   4.1885
     4.8850   4.9511   5.0931   5.2583   5.4776   5.9088   6.2467   6.4589
     6.6432   7.0941   8.3139   8.6026   8.7814   8.8416   9.0118   9.1821
     9.2774   9.6809

     occupation numbers 
     1.0000   1.0000   1.0000   1.0000   1.0000   1.0000   1.0000   1.0000
     1.0000   1.0000   1.0000   1.0000   1.0000   1.0000   1.0000   1.0000
     1.0000   1.0000   1.0000   1.0000   1.0000   1.0000   1.0000   1.0000
     1.0000   1.0000   1.0000   1.0000   1.0000   1.0000   1.0000   1.0000
     1.0000   1.0000   1.0000   1.0000   1.0000   1.0000   1.0000   1.0000
     1.0000   1.0000   0.0000   0.0000   0.0000   0.0000   0.0000   0.0000
     0.0000   0.0000

          k = 0.3333-0.5774-0.9798 (  3173 PWs)   bands (ev):

   -74.4032 -74.4032 -70.0025 -70.0025 -43.1505 -43.1502 -43.1499 -43.1491
   -43.0826 -43.0825 -38.8065 -38.8064 -38.7826 -38.7820 -38.7814 -38.7804
    -5.5478  -5.3260  -5.2899  -5.2155   2.4572   2.5811   2.7022   2.8223
     2.9792   3.2118   3.2746   3.4425   3.6117   3.6342   3.9587   4.0984
     4.7506   4.9459   5.1737   5.2377   5.6144   5.7089   5.8917   6.0586
     6.2058   6.5645   8.2175   8.4194   8.7248   8.8143   9.0641   9.1183
     9.2002   9.3978

     occupation numbers 
     1.0000   1.0000   1.0000   1.0000   1.0000   1.0000   1.0000   1.0000
     1.0000   1.0000   1.0000   1.0000   1.0000   1.0000   1.0000   1.0000
     1.0000   1.0000   1.0000   1.0000   1.0000   1.0000   1.0000   1.0000
     1.0000   1.0000   1.0000   1.0000   1.0000   1.0000   1.0000   1.0000
     1.0000   1.0000   1.0000   1.0000   1.0000   1.0000   1.0000   1.0000
     1.0000   1.0000   0.0000   0.0000   0.0000   0.0000   0.0000   0.0000
     0.0000   0.0000

 ------ SPIN DOWN ----------


          k = 0.0000 0.0000 0.0000 (  3203 PWs)   bands (ev):

   -74.4036 -74.4032 -70.0028 -70.0025 -43.1509 -43.1490 -43.1487 -43.1485
   -43.0830 -43.0825 -38.8070 -38.8064 -38.7831 -38.7803 -38.7796 -38.7795
    -6.1273  -5.4426  -5.4061  -5.1887   2.0544   2.1899   2.3578   3.1491
     3.1495   3.3109   3.4118   3.5004   3.9003   4.1575   4.1580   4.2325
     5.1187   5.1619   5.1678   5.1687   5.3653   6.1614   6.4751   6.5023
     7.3639   7.3642   8.4413   8.7640   8.7835   8.7839   8.9612   9.2873
     9.3939   9.6392

     occupation numbers 
     1.0000   1.0000   1.0000   1.0000   1.0000   1.0000   1.0000   1.0000
     1.0000   1.0000   1.0000   1.0000   1.0000   1.0000   1.0000   1.0000
     1.0000   1.0000   1.0000   1.0000   1.0000   1.0000   1.0000   1.0000
     1.0000   1.0000   1.0000   1.0000   1.0000   1.0000   1.0000   1.0000
     1.0000   1.0000   1.0000   1.0000   1.0000   1.0000   1.0000   1.0000
     1.0000   1.0000   0.0000   0.0000   0.0000   0.0000   0.0000   0.0000
     0.0000   0.0000

          k = 0.0000 0.0000 0.4899 (  3184 PWs)   bands (ev):

   -74.4034 -74.4032 -70.0027 -70.0024 -43.1505 -43.1495 -43.1494 -43.1487
   -43.0827 -43.0826 -38.8066 -38.8064 -38.7825 -38.7809 -38.7808 -38.7798
    -5.9075  -5.3874  -5.3381  -5.2548   2.3191   2.4234   2.5752   2.8785
     3.2294   3.2513   3.3595   3.5242   3.7660   3.7839   3.9345   4.1619
     4.8720   5.0296   5.1510   5.2375   5.6079   6.0989   6.1395   6.3143
     6.6780   7.0451   8.3461   8.6320   8.6943   8.7641   9.0011   9.3140
     9.4587   9.6509

     occupation numbers 
     1.0000   1.0000   1.0000   1.0000   1.0000   1.0000   1.0000   1.0000
     1.0000   1.0000   1.0000   1.0000   1.0000   1.0000   1.0000   1.0000
     1.0000   1.0000   1.0000   1.0000   1.0000   1.0000   1.0000   1.0000
     1.0000   1.0000   1.0000   1.0000   1.0000   1.0000   1.0000   1.0000
     1.0000   1.0000   1.0000   1.0000   1.0000   1.0000   1.0000   1.0000
     1.0000   1.0000   0.0000   0.0000   0.0000   0.0000   0.0000   0.0000
     0.0000   0.0000

          k = 0.0000 0.0000 0.9798 (  3151 PWs)   bands (ev):

   -74.4032 -74.4031 -70.0024 -70.0024 -43.1506 -43.1506 -43.1492 -43.1489
   -43.0825 -43.0824 -38.8064 -38.8063 -38.7828 -38.7827 -38.7804 -38.7802
    -5.5149  -5.4253  -5.2125  -5.2097   2.1455   2.1457   2.4364   2.4696
     3.3584   3.3945   3.4769   3.5091   3.8540   3.8844   4.1123   4.2177
     5.0000   5.0005   5.1370   5.1910   5.5248   5.5972   6.1106   6.2043
     6.4719   6.5943   8.3874   8.4262   8.6895   8.9156   8.9693   9.0464
     9.3167   9.4109

     occupation numbers 
     1.0000   1.0000   1.0000   1.0000   1.0000   1.0000   1.0000   1.0000
     1.0000   1.0000   1.0000   1.0000   1.0000   1.0000   1.0000   1.0000
     1.0000   1.0000   1.0000   1.0000   1.0000   1.0000   1.0000   1.0000
     1.0000   1.0000   1.0000   1.0000   1.0000   1.0000   1.0000   1.0000
     1.0000   1.0000   1.0000   1.0000   1.0000   1.0000   1.0000   1.0000
     1.0000   1.0000   0.0000   0.0000   0.0000   0.0000   0.0000   0.0000
     0.0000   0.0000

          k = 0.0000 0.3849-0.1361 (  3185 PWs)   bands (ev):

   -74.4034 -74.4033 -70.0026 -70.0025 -43.1503 -43.1492 -43.1490 -43.1485
   -43.0827 -43.0826 -38.8067 -38.8065 -38.7822 -38.7804 -38.7801 -38.7796
    -5.9695  -5.6290  -5.3572  -5.2495   2.2732   2.3855   2.6229   2.9475
     3.2307   3.3560   3.3572   3.4205   3.7645   3.8645   4.1677   4.1898
     4.9405   5.0686   5.1232   5.1673   5.7541   6.2519   6.2953   6.7236
     6.8222   7.1371   8.4259   8.6756   8.7819   8.8236   9.0838   9.6046
     9.6180   9.9033

     occupation numbers 
     1.0000   1.0000   1.0000   1.0000   1.0000   1.0000   1.0000   1.0000
     1.0000   1.0000   1.0000   1.0000   1.0000   1.0000   1.0000   1.0000
     1.0000   1.0000   1.0000   1.0000   1.0000   1.0000   1.0000   1.0000
     1.0000   1.0000   1.0000   1.0000   1.0000   1.0000   1.0000   1.0000
     1.0000   1.0000   1.0000   1.0000   1.0000   1.0000   1.0000   1.0000
     1.0000   1.0000   0.0000   0.0000   0.0000   0.0000   0.0000   0.0000
     0.0000   0.0000

          k = 0.0000 0.3849 0.3538 (  3165 PWs)   bands (ev):

   -74.4034 -74.4031 -70.0026 -70.0024 -43.1505 -43.1494 -43.1492 -43.1487
   -43.0827 -43.0824 -38.8067 -38.8063 -38.7825 -38.7809 -38.7805 -38.7797
    -5.8752  -5.4187  -5.4122  -5.1870   2.4563   2.5202   2.7375   2.8264
     3.1212   3.2410   3.3488   3.4115   3.6014   3.8301   4.0346   4.1743
     4.8852   5.0389   5.1197   5.2365   5.4993   5.8305   6.2588   6.3265
     6.7528   7.0695   8.3477   8.5803   8.8167   8.8762   9.1025   9.1273
     9.5540   9.7509

     occupation numbers 
     1.0000   1.0000   1.0000   1.0000   1.0000   1.0000   1.0000   1.0000
     1.0000   1.0000   1.0000   1.0000   1.0000   1.0000   1.0000   1.0000
     1.0000   1.0000   1.0000   1.0000   1.0000   1.0000   1.0000   1.0000
     1.0000   1.0000   1.0000   1.0000   1.0000   1.0000   1.0000   1.0000
     1.0000   1.0000   1.0000   1.0000   1.0000   1.0000   1.0000   1.0000
     1.0000   1.0000   0.0000   0.0000   0.0000   0.0000   0.0000   0.0000
     0.0000   0.0000

          k = 0.0000 0.3849 0.8437 (  3166 PWs)   bands (ev):

   -74.4032 -74.4032 -70.0025 -70.0024 -43.1504 -43.1501 -43.1498 -43.1491
   -43.0826 -43.0825 -38.8065 -38.8064 -38.7825 -38.7820 -38.7814 -38.7804
    -5.5214  -5.3352  -5.3167  -5.2041   2.3535   2.4603   2.6099   2.6829
     3.0874   3.2795   3.4775   3.4934   3.5930   3.8042   3.9005   4.0472
     4.7649   4.9092   5.1789   5.2297   5.7130   5.8078   5.8853   6.1275
     6.2567   6.5721   8.2482   8.3725   8.6309   8.7633   9.0971   9.0986
     9.2683   9.4524

     occupation numbers 
     1.0000   1.0000   1.0000   1.0000   1.0000   1.0000   1.0000   1.0000
     1.0000   1.0000   1.0000   1.0000   1.0000   1.0000   1.0000   1.0000
     1.0000   1.0000   1.0000   1.0000   1.0000   1.0000   1.0000   1.0000
     1.0000   1.0000   1.0000   1.0000   1.0000   1.0000   1.0000   1.0000
     1.0000   1.0000   1.0000   1.0000   1.0000   1.0000   1.0000   1.0000
     1.0000   1.0000   0.0000   0.0000   0.0000   0.0000   0.0000   0.0000
     0.0000   0.0000

          k = 0.0000 0.3849-1.1159 (  3158 PWs)   bands (ev):

   -74.4032 -74.4031 -70.0025 -70.0024 -43.1506 -43.1503 -43.1494 -43.1490
   -43.0826 -43.0825 -38.8065 -38.8063 -38.7827 -38.7824 -38.7808 -38.7802
    -5.4616  -5.3898  -5.3292  -5.1940   2.2389   2.3009   2.5455   2.5825
     3.2206   3.3496   3.4254   3.5106   3.7042   3.8285   4.0276   4.1712
     4.9015   4.9749   5.1478   5.2147   5.5522   5.7389   5.8903   6.2378
     6.3282   6.6101   8.3815   8.4361   8.6991   8.8116   9.0015   9.0943
     9.2084   9.3661

     occupation numbers 
     1.0000   1.0000   1.0000   1.0000   1.0000   1.0000   1.0000   1.0000
     1.0000   1.0000   1.0000   1.0000   1.0000   1.0000   1.0000   1.0000
     1.0000   1.0000   1.0000   1.0000   1.0000   1.0000   1.0000   1.0000
     1.0000   1.0000   1.0000   1.0000   1.0000   1.0000   1.0000   1.0000
     1.0000   1.0000   1.0000   1.0000   1.0000   1.0000   1.0000   1.0000
     1.0000   1.0000   0.0000   0.0000   0.0000   0.0000   0.0000   0.0000
     0.0000   0.0000

          k = 0.0000 0.3849-0.6260 (  3178 PWs)   bands (ev):

   -74.4033 -74.4033 -70.0026 -70.0025 -43.1501 -43.1499 -43.1490 -43.1490
   -43.0827 -43.0826 -38.8066 -38.8065 -38.7819 -38.7816 -38.7803 -38.7801
    -5.6862  -5.6198  -5.3830  -5.2250   2.4731   2.6171   2.6737   2.7751
     3.2076   3.2617   3.3707   3.4196   3.4984   3.7542   4.1115   4.1252
     4.9354   5.0155   5.1253   5.1402   5.6616   6.0065   6.2000   6.3830
     6.6710   6.7334   8.4614   8.5568   8.7552   8.8509   9.1805   9.2250
     9.3931   9.5902

     occupation numbers 
     1.0000   1.0000   1.0000   1.0000   1.0000   1.0000   1.0000   1.0000
     1.0000   1.0000   1.0000   1.0000   1.0000   1.0000   1.0000   1.0000
     1.0000   1.0000   1.0000   1.0000   1.0000   1.0000   1.0000   1.0000
     1.0000   1.0000   1.0000   1.0000   1.0000   1.0000   1.0000   1.0000
     1.0000   1.0000   1.0000   1.0000   1.0000   1.0000   1.0000   1.0000
     1.0000   1.0000   0.0000   0.0000   0.0000   0.0000   0.0000   0.0000
     0.0000   0.0000

          k = 0.3333 0.1925-0.2722 (  3186 PWs)   bands (ev):

   -74.4034 -74.4033 -70.0027 -70.0025 -43.1502 -43.1491 -43.1489 -43.1486
   -43.0827 -43.0826 -38.8067 -38.8065 -38.7821 -38.7804 -38.7801 -38.7797
    -5.9187  -5.5052  -5.4198  -5.3838   2.3052   2.4770   2.6099   2.8798
     3.2312   3.3401   3.3553   3.3668   3.7961   3.8702   4.1744   4.1961
     4.9805   5.0541   5.0963   5.1239   5.8751   6.2895   6.2967   6.7241
     6.8286   7.1189   8.4474   8.5965   8.8381   8.8824   9.0401   9.4606
     9.6154   9.8431

     occupation numbers 
     1.0000   1.0000   1.0000   1.0000   1.0000   1.0000   1.0000   1.0000
     1.0000   1.0000   1.0000   1.0000   1.0000   1.0000   1.0000   1.0000
     1.0000   1.0000   1.0000   1.0000   1.0000   1.0000   1.0000   1.0000
     1.0000   1.0000   1.0000   1.0000   1.0000   1.0000   1.0000   1.0000
     1.0000   1.0000   1.0000   1.0000   1.0000   1.0000   1.0000   1.0000
     1.0000   1.0000   0.0000   0.0000   0.0000   0.0000   0.0000   0.0000
     0.0000   0.0000

          k = 0.3333 0.1925 0.2177 (  3178 PWs)   bands (ev):

   -74.4034 -74.4032 -70.0026 -70.0024 -43.1506 -43.1494 -43.1492 -43.1487
   -43.0827 -43.0825 -38.8067 -38.8064 -38.7826 -38.7809 -38.7805 -38.7797
    -5.9446  -5.3775  -5.3354  -5.2210   2.3110   2.4158   2.5658   2.9130
     3.2206   3.2420   3.3634   3.5466   3.7500   3.7923   3.9180   4.1603
     4.8571   5.0564   5.1616   5.2279   5.6144   5.9938   6.1714   6.3057
     6.7480   7.0794   8.3313   8.6446   8.6509   8.7851   9.0486   9.3021
     9.5418   9.6083

     occupation numbers 
     1.0000   1.0000   1.0000   1.0000   1.0000   1.0000   1.0000   1.0000
     1.0000   1.0000   1.0000   1.0000   1.0000   1.0000   1.0000   1.0000
     1.0000   1.0000   1.0000   1.0000   1.0000   1.0000   1.0000   1.0000
     1.0000   1.0000   1.0000   1.0000   1.0000   1.0000   1.0000   1.0000
     1.0000   1.0000   1.0000   1.0000   1.0000   1.0000   1.0000   1.0000
     1.0000   1.0000   0.0000   0.0000   0.0000   0.0000   0.0000   0.0000
     0.0000   0.0000

          k = 0.3333 0.1925 0.7076 (  3164 PWs)   bands (ev):

   -74.4032 -74.4031 -70.0025 -70.0024 -43.1504 -43.1502 -43.1498 -43.1492
   -43.0825 -43.0825 -38.8064 -38.8063 -38.7825 -38.7821 -38.7814 -38.7804
    -5.6220  -5.3429  -5.2091  -5.1982   2.5592   2.6223   2.8075   2.8466
     2.9567   3.1719   3.2496   3.3750   3.5126   3.6085   3.9644   4.1039
     4.7646   4.9928   5.1470   5.2492   5.5743   5.6452   5.7437   6.0922
     6.1505   6.5933   8.2430   8.5113   8.7522   8.8730   9.0742   9.1144
     9.1728   9.3049

     occupation numbers 
     1.0000   1.0000   1.0000   1.0000   1.0000   1.0000   1.0000   1.0000
     1.0000   1.0000   1.0000   1.0000   1.0000   1.0000   1.0000   1.0000
     1.0000   1.0000   1.0000   1.0000   1.0000   1.0000   1.0000   1.0000
     1.0000   1.0000   1.0000   1.0000   1.0000   1.0000   1.0000   1.0000
     1.0000   1.0000   1.0000   1.0000   1.0000   1.0000   1.0000   1.0000
     1.0000   1.0000   0.0000   0.0000   0.0000   0.0000   0.0000   0.0000
     0.0000   0.0000

          k = 0.3333 0.1925-1.2520 (  3156 PWs)   bands (ev):

   -74.4032 -74.4032 -70.0024 -70.0024 -43.1507 -43.1504 -43.1494 -43.1490
   -43.0825 -43.0825 -38.8064 -38.8063 -38.7828 -38.7824 -38.7808 -38.7802
    -5.5709  -5.3790  -5.2114  -5.2048   2.2711   2.2755   2.5514   2.6084
     3.2379   3.3448   3.4603   3.5190   3.7166   3.7497   4.0021   4.1756
     4.8931   4.9693   5.1433   5.2182   5.5673   5.6250   5.9334   6.1667
     6.3231   6.6203   8.3933   8.4326   8.6406   8.8700   9.0758   9.0830
     9.2466   9.4585

     occupation numbers 
     1.0000   1.0000   1.0000   1.0000   1.0000   1.0000   1.0000   1.0000
     1.0000   1.0000   1.0000   1.0000   1.0000   1.0000   1.0000   1.0000
     1.0000   1.0000   1.0000   1.0000   1.0000   1.0000   1.0000   1.0000
     1.0000   1.0000   1.0000   1.0000   1.0000   1.0000   1.0000   1.0000
     1.0000   1.0000   1.0000   1.0000   1.0000   1.0000   1.0000   1.0000
     1.0000   1.0000   0.0000   0.0000   0.0000   0.0000   0.0000   0.0000
     0.0000   0.0000

          k = 0.3333 0.1925-0.7621 (  3171 PWs)   bands (ev):

   -74.4033 -74.4033 -70.0025 -70.0025 -43.1501 -43.1498 -43.1490 -43.1490
   -43.0826 -43.0826 -38.8065 -38.8065 -38.7818 -38.7815 -38.7803 -38.7801
    -5.6539  -5.5787  -5.3448  -5.3423   2.4058   2.4274   2.6465   2.6830
     3.2709   3.2742   3.4369   3.4567   3.7863   3.7924   4.0843   4.1178
     4.9164   4.9397   5.1305   5.1523   5.9155   5.9961   6.3125   6.3700
     6.6530   6.7548   8.4133   8.4647   8.7528   8.7531   9.1694   9.2357
     9.5261   9.6328

     occupation numbers 
     1.0000   1.0000   1.0000   1.0000   1.0000   1.0000   1.0000   1.0000
     1.0000   1.0000   1.0000   1.0000   1.0000   1.0000   1.0000   1.0000
     1.0000   1.0000   1.0000   1.0000   1.0000   1.0000   1.0000   1.0000
     1.0000   1.0000   1.0000   1.0000   1.0000   1.0000   1.0000   1.0000
     1.0000   1.0000   1.0000   1.0000   1.0000   1.0000   1.0000   1.0000
     1.0000   1.0000   0.0000   0.0000   0.0000   0.0000   0.0000   0.0000
     0.0000   0.0000

          k = 0.3333-0.5774 0.0000 (  3195 PWs)   bands (ev):

   -74.4035 -74.4033 -70.0027 -70.0025 -43.1503 -43.1492 -43.1489 -43.1486
   -43.0827 -43.0826 -38.8067 -38.8065 -38.7822 -38.7804 -38.7801 -38.7797
    -5.7679  -5.6367  -5.5883  -5.2447   2.5018   2.5446   2.7648   2.9240
     3.0993   3.2294   3.3222   3.3437   3.4726   4.0192   4.1911   4.1982
     4.9753   5.0055   5.0910   5.1402   5.6083   6.2394   6.4811   6.6834
     6.7404   7.1378   8.5018   8.6452   8.8103   8.9246   9.1478   9.2876
     9.5447   9.7167

     occupation numbers 
     1.0000   1.0000   1.0000   1.0000   1.0000   1.0000   1.0000   1.0000
     1.0000   1.0000   1.0000   1.0000   1.0000   1.0000   1.0000   1.0000
     1.0000   1.0000   1.0000   1.0000   1.0000   1.0000   1.0000   1.0000
     1.0000   1.0000   1.0000   1.0000   1.0000   1.0000   1.0000   1.0000
     1.0000   1.0000   1.0000   1.0000   1.0000   1.0000   1.0000   1.0000
     1.0000   1.0000   0.0000   0.0000   0.0000   0.0000   0.0000   0.0000
     0.0000   0.0000

          k = 0.3333-0.5774 0.4899 (  3179 PWs)   bands (ev):

   -74.4033 -74.4033 -70.0025 -70.0025 -43.1501 -43.1498 -43.1490 -43.1490
   -43.0826 -43.0826 -38.8065 -38.8065 -38.7818 -38.7816 -38.7803 -38.7801
    -5.7447  -5.5959  -5.3247  -5.2441   2.4582   2.6403   2.6792   2.7476
     3.2441   3.2471   3.3779   3.4409   3.4872   3.6974   4.1020   4.1275
     4.9333   5.0290   5.1429   5.1450   5.7577   5.8509   6.2941   6.3298
     6.6497   6.7393   8.4361   8.5772   8.7711   8.8433   9.1799   9.2596
     9.4996   9.5143

     occupation numbers 
     1.0000   1.0000   1.0000   1.0000   1.0000   1.0000   1.0000   1.0000
     1.0000   1.0000   1.0000   1.0000   1.0000   1.0000   1.0000   1.0000
     1.0000   1.0000   1.0000   1.0000   1.0000   1.0000   1.0000   1.0000
     1.0000   1.0000   1.0000   1.0000   1.0000   1.0000   1.0000   1.0000
     1.0000   1.0000   1.0000   1.0000   1.0000   1.0000   1.0000   1.0000
     1.0000   1.0000   0.0000   0.0000   0.0000   0.0000   0.0000   0.0000
     0.0000   0.0000

          k = 0.3333-0.5774 0.9798 (  3173 PWs)   bands (ev):

   -74.4033 -74.4032 -70.0025 -70.0024 -43.1507 -43.1504 -43.1493 -43.1491
   -43.0826 -43.0825 -38.8065 -38.8064 -38.7828 -38.7825 -38.7808 -38.7803
    -5.5458  -5.3511  -5.2440  -5.2385   2.4548   2.4883   2.8689   2.9609
     3.0059   3.0598   3.2281   3.3591   3.5094   3.5903   4.1048   4.1852
     4.9172   5.0116   5.1446   5.2395   5.4543   5.5121   5.7956   6.0856
     6.2631   6.5802   8.3449   8.4946   8.8743   8.9348   9.0077   9.0659
     9.1295   9.2997

     occupation numbers 
     1.0000   1.0000   1.0000   1.0000   1.0000   1.0000   1.0000   1.0000
     1.0000   1.0000   1.0000   1.0000   1.0000   1.0000   1.0000   1.0000
     1.0000   1.0000   1.0000   1.0000   1.0000   1.0000   1.0000   1.0000
     1.0000   1.0000   1.0000   1.0000   1.0000   1.0000   1.0000   1.0000
     1.0000   1.0000   1.0000   1.0000   1.0000   1.0000   1.0000   1.0000
     1.0000   1.0000   0.0000   0.0000   0.0000   0.0000   0.0000   0.0000
     0.0000   0.0000

          k =-0.3333 0.1925 0.1361 (  3185 PWs)   bands (ev):

   -74.4035 -74.4032 -70.0027 -70.0024 -43.1508 -43.1490 -43.1486 -43.1484
   -43.0829 -43.0825 -38.8069 -38.8064 -38.7830 -38.7803 -38.7795 -38.7794
    -5.9726  -5.5935  -5.3996  -5.2406   2.2410   2.4340   2.5940   3.1030
     3.1635   3.1639   3.3344   3.4091   3.6143   4.2001   4.2007   4.2358
     5.0965   5.0974   5.1417   5.1937   5.3522   5.8557   6.4942   6.4975
     7.3408   7.3413   8.5877   8.8910   8.8913   8.9400   9.0354   9.0487
     9.4156   9.5132

     occupation numbers 
     1.0000   1.0000   1.0000   1.0000   1.0000   1.0000   1.0000   1.0000
     1.0000   1.0000   1.0000   1.0000   1.0000   1.0000   1.0000   1.0000
     1.0000   1.0000   1.0000   1.0000   1.0000   1.0000   1.0000   1.0000
     1.0000   1.0000   1.0000   1.0000   1.0000   1.0000   1.0000   1.0000
     1.0000   1.0000   1.0000   1.0000   1.0000   1.0000   1.0000   1.0000
     1.0000   1.0000   0.0000   0.0000   0.0000   0.0000   0.0000   0.0000
     0.0000   0.0000

          k =-0.3333 0.1925-0.3538 (  3165 PWs)   bands (ev):

   -74.4034 -74.4031 -70.0026 -70.0024 -43.1504 -43.1494 -43.1493 -43.1487
   -43.0827 -43.0824 -38.8066 -38.8063 -38.7824 -38.7808 -38.7807 -38.7797
    -5.8747  -5.4520  -5.3779  -5.1883   2.4506   2.5387   2.7209   2.8102
     3.1549   3.2565   3.3589   3.4537   3.5839   3.7388   4.0416   4.1722
     4.9078   5.0454   5.1315   5.2281   5.4825   5.9033   6.1585   6.3908
     6.7076   7.0385   8.3588   8.5642   8.8396   8.8825   9.0782   9.1824
     9.5496   9.8012

     occupation numbers 
     1.0000   1.0000   1.0000   1.0000   1.0000   1.0000   1.0000   1.0000
     1.0000   1.0000   1.0000   1.0000   1.0000   1.0000   1.0000   1.0000
     1.0000   1.0000   1.0000   1.0000   1.0000   1.0000   1.0000   1.0000
     1.0000   1.0000   1.0000   1.0000   1.0000   1.0000   1.0000   1.0000
     1.0000   1.0000   1.0000   1.0000   1.0000   1.0000   1.0000   1.0000
     1.0000   1.0000   0.0000   0.0000   0.0000   0.0000   0.0000   0.0000
     0.0000   0.0000

          k =-0.3333 0.1925-0.8437 (  3166 PWs)   bands (ev):

   -74.4032 -74.4032 -70.0025 -70.0024 -43.1506 -43.1506 -43.1493 -43.1490
   -43.0826 -43.0825 -38.8064 -38.8064 -38.7828 -38.7827 -38.7805 -38.7802
    -5.5153  -5.3801  -5.2638  -5.2184   2.3517   2.3714   2.7282   2.7980
     3.1737   3.2240   3.3714   3.3787   3.4759   3.5948   4.1756   4.2142
     5.0256   5.0503   5.1459   5.2237   5.4148   5.4664   5.8649   6.0151
     6.4113   6.5604   8.4823   8.5190   8.9138   8.9660   8.9884   9.0350
     9.1411   9.3042

     occupation numbers 
     1.0000   1.0000   1.0000   1.0000   1.0000   1.0000   1.0000   1.0000
     1.0000   1.0000   1.0000   1.0000   1.0000   1.0000   1.0000   1.0000
     1.0000   1.0000   1.0000   1.0000   1.0000   1.0000   1.0000   1.0000
     1.0000   1.0000   1.0000   1.0000   1.0000   1.0000   1.0000   1.0000
     1.0000   1.0000   1.0000   1.0000   1.0000   1.0000   1.0000   1.0000
     1.0000   1.0000   0.0000   0.0000   0.0000   0.0000   0.0000   0.0000
     0.0000   0.0000

          k =-0.3333 0.1925 1.1159 (  3158 PWs)   bands (ev):

   -74.4032 -74.4031 -70.0024 -70.0024 -43.1506 -43.1506 -43.1492 -43.1490
   -43.0825 -43.0825 -38.8064 -38.8064 -38.7828 -38.7827 -38.7805 -38.7802
    -5.4416  -5.4258  -5.3106  -5.1966   2.2367   2.2806   2.5712   2.6124
     3.2883   3.3281   3.3951   3.4492   3.6356   3.7494   4.1649   4.2170
     5.0163   5.0750   5.1338   5.1845   5.4359   5.6031   5.9128   6.0876
     6.4390   6.5902   8.4648   8.5459   8.8822   8.9108   8.9379   9.0852
     9.1130   9.2313

     occupation numbers 
     1.0000   1.0000   1.0000   1.0000   1.0000   1.0000   1.0000   1.0000
     1.0000   1.0000   1.0000   1.0000   1.0000   1.0000   1.0000   1.0000
     1.0000   1.0000   1.0000   1.0000   1.0000   1.0000   1.0000   1.0000
     1.0000   1.0000   1.0000   1.0000   1.0000   1.0000   1.0000   1.0000
     1.0000   1.0000   1.0000   1.0000   1.0000   1.0000   1.0000   1.0000
     1.0000   1.0000   0.0000   0.0000   0.0000   0.0000   0.0000   0.0000
     0.0000   0.0000

          k =-0.3333 0.1925 0.6260 (  3178 PWs)   bands (ev):

   -74.4034 -74.4031 -70.0027 -70.0024 -43.1504 -43.1495 -43.1494 -43.1487
   -43.0827 -43.0825 -38.8067 -38.8064 -38.7825 -38.7808 -38.7808 -38.7797
    -5.7120  -5.5585  -5.4230  -5.2208   2.5152   2.5228   2.7161   2.8331
     3.0683   3.2564   3.3137   3.3515   3.5815   3.9616   4.0682   4.1914
     4.9164   4.9406   5.0855   5.2578   5.4413   5.9350   6.3297   6.4695
     6.5550   7.0591   8.3443   8.5526   8.7919   8.8695   9.0132   9.1919
     9.2419   9.7496

     occupation numbers 
     1.0000   1.0000   1.0000   1.0000   1.0000   1.0000   1.0000   1.0000
     1.0000   1.0000   1.0000   1.0000   1.0000   1.0000   1.0000   1.0000
     1.0000   1.0000   1.0000   1.0000   1.0000   1.0000   1.0000   1.0000
     1.0000   1.0000   1.0000   1.0000   1.0000   1.0000   1.0000   1.0000
     1.0000   1.0000   1.0000   1.0000   1.0000   1.0000   1.0000   1.0000
     1.0000   1.0000   0.0000   0.0000   0.0000   0.0000   0.0000   0.0000
     0.0000   0.0000

          k = 0.3333-0.5774-0.4899 (  3179 PWs)   bands (ev):

   -74.4035 -74.4031 -70.0027 -70.0024 -43.1506 -43.1494 -43.1493 -43.1487
   -43.0827 -43.0825 -38.8067 -38.8064 -38.7826 -38.7809 -38.7806 -38.7797
    -5.7573  -5.5502  -5.3710  -5.2315   2.4989   2.5179   2.7512   2.8294
     3.0483   3.2434   3.3040   3.3421   3.6008   3.9839   4.0553   4.1885
     4.8850   4.9511   5.0931   5.2583   5.4776   5.9088   6.2467   6.4589
     6.6432   7.0941   8.3139   8.6026   8.7814   8.8416   9.0118   9.1821
     9.2774   9.6809

     occupation numbers 
     1.0000   1.0000   1.0000   1.0000   1.0000   1.0000   1.0000   1.0000
     1.0000   1.0000   1.0000   1.0000   1.0000   1.0000   1.0000   1.0000
     1.0000   1.0000   1.0000   1.0000   1.0000   1.0000   1.0000   1.0000
     1.0000   1.0000   1.0000   1.0000   1.0000   1.0000   1.0000   1.0000
     1.0000   1.0000   1.0000   1.0000   1.0000   1.0000   1.0000   1.0000
     1.0000   1.0000   0.0000   0.0000   0.0000   0.0000   0.0000   0.0000
     0.0000   0.0000

          k = 0.3333-0.5774-0.9798 (  3173 PWs)   bands (ev):

   -74.4032 -74.4032 -70.0025 -70.0025 -43.1505 -43.1502 -43.1499 -43.1491
   -43.0826 -43.0825 -38.8065 -38.8064 -38.7826 -38.7820 -38.7814 -38.7804
    -5.5478  -5.3260  -5.2899  -5.2155   2.4572   2.5811   2.7022   2.8223
     2.9791   3.2118   3.2746   3.4425   3.6117   3.6342   3.9587   4.0984
     4.7506   4.9459   5.1737   5.2377   5.6144   5.7089   5.8917   6.0586
     6.2058   6.5645   8.2175   8.4194   8.7248   8.8143   9.0641   9.1183
     9.2002   9.3979

     occupation numbers 
     1.0000   1.0000   1.0000   1.0000   1.0000   1.0000   1.0000   1.0000
     1.0000   1.0000   1.0000   1.0000   1.0000   1.0000   1.0000   1.0000
     1.0000   1.0000   1.0000   1.0000   1.0000   1.0000   1.0000   1.0000
     1.0000   1.0000   1.0000   1.0000   1.0000   1.0000   1.0000   1.0000
     1.0000   1.0000   1.0000   1.0000   1.0000   1.0000   1.0000   1.0000
     1.0000   1.0000   0.0000   0.0000   0.0000   0.0000   0.0000   0.0000
     0.0000   0.0000

     the Fermi energy is     7.7916 ev

!    total energy              =   -1411.11697824 Ry
     total all-electron energy =    -12462.550593 Ry
     estimated scf accuracy    <          9.7E-12 Ry
     smearing contrib. (-TS)   =      -0.00000004 Ry
     internal energy E=F+TS    =   -1411.11697820 Ry

     The total energy is F=E-TS. E is the sum of the following terms:
     one-electron contribution =    -609.32814379 Ry
     hartree contribution      =     338.52462045 Ry
     xc contribution           =    -132.35786298 Ry
     ewald contribution        =    -512.93048703 Ry
     one-center paw contrib.   =    -495.02510485 Ry
      -> PAW hartree energy AE =     350.53833200 Ry
      -> PAW hartree energy PS =    -352.46162191 Ry
      -> PAW xc energy AE      =    -209.02424492 Ry
      -> PAW xc energy PS      =      55.70562491 Ry
      -> total E_H with PAW    =     336.60133054 Ry
      -> total E_XC with PAW   =    -285.67648299 Ry

     total magnetization       =     0.00 Bohr mag/cell
     absolute magnetization    =    17.94 Bohr mag/cell

     convergence has been achieved in  17 iterations

     Forces acting on atoms (cartesian axes, Ry/au):

     atom    1 type  1   force =    -0.00000390   -0.00000540    0.00000309
     atom    2 type  2   force =    -0.00000556   -0.00000788    0.00000497
     atom    3 type  3   force =    -0.00000389   -0.00000682    0.00000359
     atom    4 type  4   force =    -0.00000249   -0.00000827    0.00000333
     atom    5 type  5   force =     0.00000401    0.00000731   -0.00000385
     atom    6 type  5   force =     0.00000355    0.00000703   -0.00000347
     atom    7 type  5   force =     0.00000390    0.00000697   -0.00000367
     atom    8 type  5   force =     0.00000438    0.00000707   -0.00000399
     The non-local contrib.  to forces
     atom    1 type  1   force =     0.00278050   -0.00130722   -0.00107010
     atom    2 type  2   force =     0.00278068   -0.00130836   -0.00106983
     atom    3 type  3   force =     0.00278238   -0.00130798   -0.00107101
     atom    4 type  4   force =     0.00278234   -0.00130959   -0.00107044
     atom    5 type  5   force =    -0.00187565    0.00096797    0.00078544
     atom    6 type  5   force =    -0.00187608    0.00096790    0.00078570
     atom    7 type  5   force =    -0.00187622    0.00096792    0.00078579
     atom    8 type  5   force =    -0.00187577    0.00096813    0.00078544
     The ionic contribution  to forces
     atom    1 type  1   force =     0.30699444   -0.17556284   -0.12597023
     atom    2 type  2   force =     0.30695681   -0.17560159   -0.12593340
     atom    3 type  3   force =     0.30690429   -0.17554815   -0.12591984
     atom    4 type  4   force =     0.30694034   -0.17555204   -0.12594123
     atom    5 type  5   force =    -0.30695627    0.17556462    0.12594637
     atom    6 type  5   force =    -0.30696108    0.17557752    0.12594441
     atom    7 type  5   force =    -0.30694040    0.17555696    0.12593919
     atom    8 type  5   force =    -0.30693813    0.17556554    0.12593472
     The local contribution  to forces
     atom    1 type  1   force =    -0.31334286    0.17892851    0.12849630
     atom    2 type  2   force =    -0.31330514    0.17897097    0.12845812
     atom    3 type  3   force =    -0.31325729    0.17891640    0.12844778
     atom    4 type  4   force =    -0.31329327    0.17892411    0.12846788
     atom    5 type  5   force =     0.30819016   -0.17615690   -0.12646944
     atom    6 type  5   force =     0.30819312   -0.17617349   -0.12646496
     atom    7 type  5   force =     0.30817503   -0.17615183   -0.12646180
     atom    8 type  5   force =     0.30817481   -0.17616193   -0.12645801
     The core correction contribution to forces
     atom    1 type  1   force =     0.00327876   -0.00190370   -0.00133470
     atom    2 type  2   force =     0.00327841   -0.00190385   -0.00133443
     atom    3 type  3   force =     0.00327822   -0.00190367   -0.00133438
     atom    4 type  4   force =     0.00327856   -0.00190363   -0.00133459
     atom    5 type  5   force =     0.00035841   -0.00020186   -0.00014902
     atom    6 type  5   force =     0.00035842   -0.00020188   -0.00014901
[...]
     1.0000   1.0000   1.0000   1.0000   1.0000   1.0000   1.0000   1.0000
     1.0000   1.0000   1.0000   1.0000   1.0000   1.0000   1.0000   1.0000
     1.0000   1.0000   1.0000   1.0000   1.0000   1.0000   1.0000   1.0000
     1.0000   1.0000   1.0000   1.0000   1.0000   1.0000   1.0000   1.0000
     1.0000   1.0000   0.0402   0.0000   0.0000   0.0000   0.0000   0.0000
     0.0000   0.0000

          k =-0.3641 0.2101 0.1487 (  2512 PWs)   bands (ev):

   -71.1352 -71.1351 -67.4665 -67.4662 -39.9275 -39.9211 -39.9197 -39.9174
   -39.8063 -39.8056 -36.2979 -36.2969 -36.2688 -36.2608 -36.2579 -36.2571
    -4.2401  -3.6742  -3.3784  -3.1725   4.0999   4.3969   4.4191   5.2687
     5.3915   5.4013   5.6024   5.6828   5.8410   6.3158   6.3242   6.3734
     8.0311   8.0322   8.1523   8.1687   8.3389   8.7851   9.6052   9.9049
    10.3788  10.3827  11.0433  11.5371  11.6013  11.9159  11.9253  11.9990
    12.2627  12.6010

     occupation numbers 
     1.0000   1.0000   1.0000   1.0000   1.0000   1.0000   1.0000   1.0000
     1.0000   1.0000   1.0000   1.0000   1.0000   1.0000   1.0000   1.0000
     1.0000   1.0000   1.0000   1.0000   1.0000   1.0000   1.0000   1.0000
     1.0000   1.0000   1.0000   1.0000   1.0000   1.0000   1.0000   1.0000
     1.0000   1.0000   1.0000   1.0000   1.0000   1.0000   1.0000   1.0000
     0.7713   0.7586   0.0000   0.0000   0.0000   0.0000   0.0000   0.0000
     0.0000   0.0000

          k =-0.3607 0.2086-0.3759 (  2544 PWs)   bands (ev):

   -71.1353 -71.1352 -67.4665 -67.4663 -39.9257 -39.9230 -39.9230 -39.9183
   -39.8061 -39.8056 -36.2976 -36.2969 -36.2672 -36.2625 -36.2618 -36.2585
    -4.1117  -3.4760  -3.3445  -3.0785   4.3387   4.4933   4.5666   4.8874
     5.3035   5.4793   5.5342   5.5753   5.8604   5.8865   6.2509   6.3192
     7.7685   7.9983   8.0584   8.2330   8.4191   8.8812   9.1345   9.5958
    10.0982  10.1628  10.6873  10.9771  11.3296  11.7102  11.7208  11.9412
    12.7798  12.7871

     occupation numbers 
     1.0000   1.0000   1.0000   1.0000   1.0000   1.0000   1.0000   1.0000
     1.0000   1.0000   1.0000   1.0000   1.0000   1.0000   1.0000   1.0000
     1.0000   1.0000   1.0000   1.0000   1.0000   1.0000   1.0000   1.0000
     1.0000   1.0000   1.0000   1.0000   1.0000   1.0000   1.0000   1.0000
     1.0000   1.0000   1.0000   1.0000   1.0000   1.0000   1.0000   1.0000
     0.9999   0.9986   0.0069   0.0000   0.0000   0.0000   0.0000   0.0000
     0.0000   0.0000

          k =-0.3572 0.2071-0.9005 (  2551 PWs)   bands (ev):

   -71.1352 -71.1351 -67.4663 -67.4663 -39.9279 -39.9266 -39.9220 -39.9195
   -39.8057 -39.8056 -36.2970 -36.2970 -36.2690 -36.2682 -36.2607 -36.2600
    -3.5732  -3.3413  -3.2243  -3.1206   4.2336   4.2786   4.5555   4.6460
     5.3382   5.3891   5.6028   5.6534   5.7140   5.8611   6.3353   6.3648
     7.9461   7.9673   8.1369   8.1997   8.4450   8.4804   8.7939   9.0375
     9.5691   9.6896  10.8767  11.0256  11.5087  11.5416  11.6511  11.6811
    11.8651  12.3607

     occupation numbers 
     1.0000   1.0000   1.0000   1.0000   1.0000   1.0000   1.0000   1.0000
     1.0000   1.0000   1.0000   1.0000   1.0000   1.0000   1.0000   1.0000
     1.0000   1.0000   1.0000   1.0000   1.0000   1.0000   1.0000   1.0000
     1.0000   1.0000   1.0000   1.0000   1.0000   1.0000   1.0000   1.0000
     1.0000   1.0000   1.0000   1.0000   1.0000   1.0000   1.0000   1.0000
     1.0000   1.0000   0.0000   0.0000   0.0000   0.0000   0.0000   0.0000
     0.0000   0.0000

          k =-0.3711 0.2130 1.1979 (  2547 PWs)   bands (ev):

   -71.1351 -71.1351 -67.4663 -67.4662 -39.9280 -39.9265 -39.9220 -39.9195
   -39.8057 -39.8055 -36.2970 -36.2968 -36.2689 -36.2682 -36.2607 -36.2600
    -3.4573  -3.4024  -3.2956  -3.0943   4.0978   4.1335   4.3743   4.4131
     5.5179   5.5606   5.6659   5.7439   5.8723   6.0412   6.3378   6.3610
     7.9279   7.9300   8.1141   8.1741   8.4380   8.7291   8.8376   9.1172
     9.5814   9.7192  10.8518  11.1674  11.4064  11.4304  11.5603  11.6865
    11.9854  11.9964

     occupation numbers 
     1.0000   1.0000   1.0000   1.0000   1.0000   1.0000   1.0000   1.0000
     1.0000   1.0000   1.0000   1.0000   1.0000   1.0000   1.0000   1.0000
     1.0000   1.0000   1.0000   1.0000   1.0000   1.0000   1.0000   1.0000
     1.0000   1.0000   1.0000   1.0000   1.0000   1.0000   1.0000   1.0000
     1.0000   1.0000   1.0000   1.0000   1.0000   1.0000   1.0000   1.0000
     1.0000   1.0000   0.0000   0.0000   0.0000   0.0000   0.0000   0.0000
     0.0000   0.0000

          k =-0.3676 0.2115 0.6733 (  2547 PWs)   bands (ev):

   -71.1353 -71.1352 -67.4665 -67.4663 -39.9257 -39.9230 -39.9230 -39.9183
   -39.8061 -39.8056 -36.2977 -36.2970 -36.2673 -36.2625 -36.2617 -36.2585
    -3.8335  -3.6603  -3.4268  -3.1358   4.4233   4.5039   4.7038   4.7181
     5.1476   5.4273   5.4987   5.5650   5.8952   6.0938   6.2606   6.3221
     7.7823   7.8811   7.9866   8.2719   8.4008   8.9303   9.5523   9.7412
     9.9688  10.1901  10.6579  11.1596  11.3777  11.4473  11.6994  11.9296
    12.1473  12.6784

     occupation numbers 
     1.0000   1.0000   1.0000   1.0000   1.0000   1.0000   1.0000   1.0000
     1.0000   1.0000   1.0000   1.0000   1.0000   1.0000   1.0000   1.0000
     1.0000   1.0000   1.0000   1.0000   1.0000   1.0000   1.0000   1.0000
     1.0000   1.0000   1.0000   1.0000   1.0000   1.0000   1.0000   1.0000
     1.0000   1.0000   1.0000   1.0000   1.0000   1.0000   1.0000   1.0000
     1.0000   0.9966   0.0155   0.0000   0.0000   0.0000   0.0000   0.0000
     0.0000   0.0000

          k = 0.3702-0.6242-0.5287 (  2550 PWs)   bands (ev):

   -71.1353 -71.1352 -67.4665 -67.4663 -39.9270 -39.9223 -39.9216 -39.9192
   -39.8062 -39.8056 -36.2977 -36.2969 -36.2676 -36.2629 -36.2615 -36.2581
    -3.9128  -3.6347  -3.3358  -3.1640   4.3975   4.4974   4.6971   4.7623
     5.1283   5.4158   5.4840   5.5659   5.9134   6.1080   6.2553   6.3214
     7.7387   7.8919   7.9932   8.2927   8.4465   8.8809   9.4428   9.7798
     9.9536  10.2373  10.5879  11.2629  11.3609  11.4340  11.7058  11.8960
    12.2254  12.5399

     occupation numbers 
     1.0000   1.0000   1.0000   1.0000   1.0000   1.0000   1.0000   1.0000
     1.0000   1.0000   1.0000   1.0000   1.0000   1.0000   1.0000   1.0000
     1.0000   1.0000   1.0000   1.0000   1.0000   1.0000   1.0000   1.0000
     1.0000   1.0000   1.0000   1.0000   1.0000   1.0000   1.0000   1.0000
     1.0000   1.0000   1.0000   1.0000   1.0000   1.0000   1.0000   1.0000
     1.0000   0.9866   0.0763   0.0000   0.0000   0.0000   0.0000   0.0000
     0.0000   0.0000

          k = 0.3737-0.6257-1.0533 (  2558 PWs)   bands (ev):

   -71.1352 -71.1352 -67.4664 -67.4663 -39.9265 -39.9259 -39.9234 -39.9204
   -39.8058 -39.8055 -36.2972 -36.2968 -36.2677 -36.2662 -36.2636 -36.2605
    -3.6177  -3.2578  -3.2347  -3.1518   4.3732   4.4832   4.5938   4.7166
     5.0288   5.3145   5.3504   5.6522   5.8948   5.9528   6.2202   6.2664
     7.5925   7.8729   8.1344   8.3249   8.5916   8.7148   8.8844   9.2711
     9.2804   9.8582  10.4461  10.8569  11.2190  11.3134  11.7841  11.8899
    11.9290  12.2093

     occupation numbers 
     1.0000   1.0000   1.0000   1.0000   1.0000   1.0000   1.0000   1.0000
     1.0000   1.0000   1.0000   1.0000   1.0000   1.0000   1.0000   1.0000
     1.0000   1.0000   1.0000   1.0000   1.0000   1.0000   1.0000   1.0000
     1.0000   1.0000   1.0000   1.0000   1.0000   1.0000   1.0000   1.0000
     1.0000   1.0000   1.0000   1.0000   1.0000   1.0000   1.0000   1.0000
     1.0000   1.0000   0.5172   0.0000   0.0000   0.0000   0.0000   0.0000
     0.0000   0.0000

     the Fermi energy is    10.4503 ev

!    total energy              =   -1411.02749969 Ry
     total all-electron energy =    -12462.461114 Ry
     estimated scf accuracy    <          4.1E-13 Ry
     smearing contrib. (-TS)   =      -0.00176977 Ry
     internal energy E=F+TS    =   -1411.02572992 Ry

     The total energy is F=E-TS. E is the sum of the following terms:
     one-electron contribution =    -547.23296491 Ry
     hartree contribution      =     315.84032453 Ry
     xc contribution           =    -132.75302555 Ry
     ewald contribution        =    -551.81231353 Ry
     one-center paw contrib.   =    -495.06775047 Ry
      -> PAW hartree energy AE =     358.94395255 Ry
      -> PAW hartree energy PS =    -360.85735311 Ry
      -> PAW xc energy AE      =    -209.31601397 Ry
      -> PAW xc energy PS      =      55.98029950 Ry
      -> total E_H with PAW    =     313.92692397 Ry
      -> total E_XC with PAW   =    -286.08874001 Ry

     total magnetization       =    -0.00 Bohr mag/cell
     absolute magnetization    =    15.07 Bohr mag/cell

     convergence has been achieved in  25 iterations

     Forces acting on atoms (cartesian axes, Ry/au):

     atom    1 type  1   force =     0.00035404    0.00000353   -0.00019212
     atom    2 type  2   force =     0.00035396    0.00000442   -0.00019239
     atom    3 type  3   force =     0.00035499    0.00000310   -0.00019263
     atom    4 type  4   force =     0.00035464    0.00000362   -0.00019259
     atom    5 type  5   force =    -0.00035419   -0.00000406    0.00019244
     atom    6 type  5   force =    -0.00035405   -0.00000356    0.00019220
     atom    7 type  5   force =    -0.00035465   -0.00000371    0.00019258
     atom    8 type  5   force =    -0.00035475   -0.00000333    0.00019250
     The non-local contrib.  to forces
     atom    1 type  1   force =    -0.00753068    0.00479342    0.00375683
     atom    2 type  2   force =    -0.00753053    0.00479285    0.00375694
     atom    3 type  3   force =    -0.00753174    0.00479424    0.00375717
     atom    4 type  4   force =    -0.00753170    0.00479327    0.00375749
     atom    5 type  5   force =    -0.00680059    0.00446509    0.00290000
     atom    6 type  5   force =    -0.00680042    0.00446591    0.00289960
     atom    7 type  5   force =    -0.00680067    0.00446531    0.00289997
     atom    8 type  5   force =    -0.00680076    0.00446591    0.00289980
     The ionic contribution  to forces
     atom    1 type  1   force =     0.60206564   -0.33928789   -0.24434032
     atom    2 type  2   force =     0.60206317   -0.33925826   -0.24434964
     atom    3 type  3   force =     0.60213402   -0.33933224   -0.24436683
     atom    4 type  4   force =     0.60213991   -0.33929867   -0.24438194
     atom    5 type  5   force =    -0.60208782    0.33929107    0.24435318
     atom    6 type  5   force =    -0.60208401    0.33928170    0.24435486
     atom    7 type  5   force =    -0.60211199    0.33930559    0.24436251
     atom    8 type  5   force =    -0.60211893    0.33929872    0.24436818
     The local contribution  to forces
     atom    1 type  1   force =    -0.60073525    0.33822009    0.24309776
     atom    2 type  2   force =    -0.60073323    0.33819067    0.24310724
     atom    3 type  3   force =    -0.60080193    0.33826284    0.24312373
     atom    4 type  4   force =    -0.60080748    0.33823030    0.24313830
     atom    5 type  5   force =     0.60789037   -0.34338181   -0.24679796
     atom    6 type  5   force =     0.60788665   -0.34337210   -0.24679980
     atom    7 type  5   force =     0.60791386   -0.34339587   -0.24680706
     atom    8 type  5   force =     0.60792065   -0.34338870   -0.24681275
     The core correction contribution to forces
     atom    1 type  1   force =     0.00665269   -0.00378518   -0.00275190
     atom    2 type  2   force =     0.00665254   -0.00378502   -0.00275187
     atom    3 type  3   force =     0.00665312   -0.00378547   -0.00275209
     atom    4 type  4   force =     0.00665293   -0.00378529   -0.00275204
     atom    5 type  5   force =     0.00074250   -0.00044264   -0.00030807
     atom    6 type  5   force =     0.00074249   -0.00044265   -0.00030806
     atom    7 type  5   force =     0.00074251   -0.00044265   -0.00030807
     atom    8 type  5   force =     0.00074251   -0.00044266   -0.00030807
     The Hubbard contrib.    to forces
     atom    1 type  1   force =     0.00000000    0.00000000    0.00000000
     atom    2 type  2   force =     0.00000000    0.00000000    0.00000000
     atom    3 type  3   force =     0.00000000    0.00000000    0.00000000
     atom    4 type  4   force =     0.00000000    0.00000000    0.00000000
     atom    5 type  5   force =     0.00000000    0.00000000    0.00000000
     atom    6 type  5   force =     0.00000000    0.00000000    0.00000000
     atom    7 type  5   force =     0.00000000    0.00000000    0.00000000
     atom    8 type  5   force =     0.00000000    0.00000000    0.00000000
     The SCF correction term to forces
     atom    1 type  1   force =     0.00000014   -0.00000068    0.00000015
     atom    2 type  2   force =     0.00000049    0.00000041   -0.00000044
     atom    3 type  3   force =     0.00000000   -0.00000004    0.00000002
     atom    4 type  4   force =    -0.00000052    0.00000024    0.00000022
     atom    5 type  5   force =    -0.00000014    0.00000046   -0.00000007
     atom    6 type  5   force =    -0.00000027   -0.00000019    0.00000024
     atom    7 type  5   force =     0.00000013    0.00000014   -0.00000013
     atom    8 type  5   force =     0.00000026   -0.00000037   -0.00000003

     Total force =     0.001141     Total SCF correction =     0.000001


     Computing stress (Cartesian axis) and pressure

          total   stress  (Ry/bohr**3)                   (kbar)     P=     -343.27
  -0.00238111   0.00005445   0.00004277         -350.27        8.01        6.29
   0.00005445  -0.00231591  -0.00001586            8.01     -340.68       -2.33
   0.00004277  -0.00001586  -0.00230353            6.29       -2.33     -338.86

     kinetic stress (kbar)  19623.24    -30.95    -20.84
                              -30.95  19591.97     13.76
                              -20.84     13.76  19578.92

     local   stress (kbar)  -1137.00   1578.09   1093.36
                             1578.09    674.26   -675.83
                             1093.36   -675.83   1160.13

     nonloc. stress (kbar)  -1233.46     16.44     11.87
                               16.44  -1213.68     -7.29
                               11.87     -7.29  -1208.60

     hartree stress (kbar)  17351.32   -546.45   -378.73
                             -546.45  16729.69    232.27
                             -378.73    232.27  16560.83

     exc-cor stress (kbar)  -2983.35     -2.55     -1.77
                               -2.55  -2986.29      1.08
                               -1.77      1.08  -2987.12

     corecor stress (kbar)  -3357.72     -0.36      0.02
                               -0.36  -3357.66      0.40
                                0.02      0.40  -3357.70

     ewald   stress (kbar) -28613.29  -1006.21   -697.62
                            -1006.21 -29778.98    433.28
                             -697.62    433.28 -30085.33

     hubbard stress (kbar)      0.00      0.00      0.00
                                0.00      0.00      0.00
                                0.00      0.00      0.00

     DFT-D   stress (kbar)      0.00      0.00      0.00
                                0.00      0.00      0.00
                                0.00      0.00      0.00

     XDM     stress (kbar)      0.00      0.00      0.00
                                0.00      0.00      0.00
                                0.00      0.00      0.00

     dft-nl  stress (kbar)      0.00      0.00      0.00
                                0.00      0.00      0.00
                                0.00      0.00      0.00

     TS-vdW  stress (kbar)      0.00      0.00      0.00
                                0.00      0.00      0.00
                                0.00      0.00      0.00

     MDB     stress (kbar)      0.00      0.00      0.00
                                0.00      0.00      0.00
                                0.00      0.00      0.00

     3D-RISM stress (kbar)      0.00      0.00      0.00
                                0.00      0.00      0.00
                                0.00      0.00      0.00


     Writing all to output data dir ./temp/mns.save/ :
     XML data file, charge density, pseudopotentials, collected wavefunctions

     init_run     :      6.31s CPU      6.59s WALL (       2 calls)
     electrons    :   1377.95s CPU   1428.32s WALL (       9 calls)
     update_pot   :      4.30s CPU      4.35s WALL (       7 calls)
     forces       :     15.77s CPU     16.12s WALL (       9 calls)
     stress       :     51.92s CPU     52.34s WALL (       9 calls)

     Called by init_run:
     wfcinit      :      4.03s CPU      4.22s WALL (       2 calls)
     wfcinit:atom :      0.03s CPU      0.03s WALL (      92 calls)
     wfcinit:wfcr :      3.80s CPU      3.98s WALL (      92 calls)
     potinit      :      1.37s CPU      1.42s WALL (       2 calls)
     hinit0       :      0.57s CPU      0.58s WALL (       2 calls)

     Called by electrons:
     c_bands      :   1106.78s CPU   1148.12s WALL (     158 calls)
     sum_band     :    152.70s CPU    159.80s WALL (     158 calls)
     v_of_rho     :      3.38s CPU      3.50s WALL (     163 calls)
     v_h          :      0.13s CPU      0.14s WALL (     163 calls)
     v_xc         :      3.63s CPU      3.74s WALL (     181 calls)
     newd         :     27.44s CPU     27.87s WALL (     163 calls)
     PAW_pot      :     97.04s CPU     98.18s WALL (     170 calls)
     mix_rho      :      1.00s CPU      1.04s WALL (     158 calls)

     Called by c_bands:
     init_us_2    :     13.56s CPU     14.04s WALL (   15778 calls)
     cegterg      :   1080.58s CPU   1121.03s WALL (    7268 calls)

     Called by sum_band:
     sum_band:wei :      0.13s CPU      0.14s WALL (     158 calls)
     sum_band:loo :    110.14s CPU    116.37s WALL (     158 calls)
     sum_band:buf :      2.46s CPU      2.52s WALL (    7268 calls)
     sum_band:ini :      6.08s CPU      6.27s WALL (    7268 calls)
     sum_band:cal :     49.92s CPU     52.19s WALL (    7590 calls)
     sum_band:bec :      1.75s CPU      1.78s WALL (    7590 calls)
     addusdens    :     41.59s CPU     42.42s WALL (     158 calls)
                                        0.00s GPU  (     158 calls)
     addusd:skk   :      0.07s CPU      0.07s WALL (     790 calls)
                                        0.00s GPU  (     790 calls)

     Called by *egterg:
     cdiaghg      :    120.03s CPU    121.75s WALL (   35335 calls)
     cegterg:over :     96.13s CPU     98.36s WALL (   28573 calls)
     cegterg:upda :     47.12s CPU     47.70s WALL (   28573 calls)
     cegterg:last :    117.50s CPU    119.05s WALL (   17004 calls)
     h_psi        :    543.20s CPU    574.68s WALL (   35933 calls)
     s_psi        :    112.90s CPU    114.78s WALL (   35933 calls)
     g_psi        :      1.02s CPU      1.03s WALL (   28573 calls)

     Called by h_psi:
     h_psi:calbec :    145.49s CPU    152.48s WALL (   35933 calls)
     vloc_psi     :    278.33s CPU    300.66s WALL (   35933 calls)
     add_vuspsi   :    115.17s CPU    117.27s WALL (   35933 calls)

     General routines
     calbec       :    209.24s CPU    218.85s WALL (   45593 calls)
     fft          :      1.96s CPU      2.02s WALL (    4432 calls)
     ffts         :      0.30s CPU      0.31s WALL (     642 calls)
     fftw         :    297.32s CPU    321.25s WALL ( 2354658 calls)
     interpolate  :      0.39s CPU      0.41s WALL (     326 calls)

     Parallel routines

     PAW routines
     PAW_pot      :     97.04s CPU     98.18s WALL (     170 calls)

     PWSCF        :  24m24.76s CPU  25m16.64s WALL


   This run was terminated on:  20:11: 8  20Jan2025            

=------------------------------------------------------------------------------=
   JOB DONE.
=------------------------------------------------------------------------------=
