
     Program PWSCF v.7.3.1 starts on 11Dec2025 at 15:12:57 

     This program is part of the open-source Quantum ESPRESSO suite
     for quantum simulation of materials; please cite
         "P. Giannozzi et al., J. Phys.:Condens. Matter 21 395502 (2009);
         "P. Giannozzi et al., J. Phys.:Condens. Matter 29 465901 (2017);
         "P. Giannozzi et al., J. Chem. Phys. 152 154105 (2020);
          URL http://www.quantum-espresso.org", 
     in publications or presentations arising from this work. More details at
     http://www.quantum-espresso.org/quote

     Parallel version (MPI), running on     6 processors

     MPI processes distributed on     1 nodes
     21652 MiB available memory on the printing compute node when the environment starts

     Reading input from scf-afm/scf-afm.in

     Current dimensions of program PWSCF are:
     Max number of different atomic species (ntypx) = 10
     Max number of k-points (npk) =  40000
     Max angular momentum in pseudopotentials (lmaxx) =  4
     file Fe.pbesol-spn-kjpaw_psl.1.0.0.UPF: wavefunction(s)  3P 3D renormalized
     file Fe.pbesol-spn-kjpaw_psl.1.0.0.UPF: wavefunction(s)  3P 3D renormalized

     R & G space division:  proc/nbgrp/npool/nimage =       6
     Subspace diagonalization in iterative solution of the eigenvalue problem:
     a serial algorithm will be used


     Parallelization info
     --------------------
     sticks:   dense  smooth     PW     G-vecs:    dense   smooth      PW
     Min         351     175     50                12240     4303     688
     Max         352     179     52                12242     4304     691
     Sum        2109    1057    305                73447    25821    4139

     Using Slab Decomposition



     bravais-lattice index     =            1
     lattice parameter (alat)  =       5.2715  a.u.
     unit-cell volume          =     146.4906 (a.u.)^3
     number of atoms/cell      =            2
     number of atomic types    =            2
     number of electrons       =        32.00
     number of Kohn-Sham states=           20
     kinetic-energy cutoff     =     120.0000  Ry
     charge density cutoff     =     960.0000  Ry
     scf convergence threshold =      1.0E-10
     mixing beta               =       0.7000
     number of iterations used =            8  plain     mixing
     Exchange-correlation= SLA  PW   PSX  PSC
                           (   1   4  10   8   0   0   0)

     celldm(1)=   5.271529  celldm(2)=   0.000000  celldm(3)=   0.000000
     celldm(4)=   0.000000  celldm(5)=   0.000000  celldm(6)=   0.000000

     crystal axes: (cart. coord. in units of alat)
               a(1) = (   1.000000   0.000000   0.000000 )  
               a(2) = (   0.000000   1.000000   0.000000 )  
               a(3) = (   0.000000   0.000000   1.000000 )  

     reciprocal axes: (cart. coord. in units 2 pi/alat)
               b(1) = (  1.000000  0.000000  0.000000 )  
               b(2) = (  0.000000  1.000000  0.000000 )  
               b(3) = (  0.000000  0.000000  1.000000 )  


     PseudoPot. # 1 for Fe read from file:
     ./../../../pseudos/Fe.pbesol-spn-kjpaw_psl.1.0.0.UPF
     MD5 check sum: e30d5f36a6f0cb983ee41abee56170da
     Pseudo is Projector augmented-wave + core cor, Zval = 16.0
     Generated using &quot;atomic&quot; code by A. Dal Corso  v.6.3
     Shape of augmentation charge: PSQ
     Using radial grid of 1191 points,  6 beta functions with: 
                l(1) =   0
                l(2) =   0
                l(3) =   1
                l(4) =   1
                l(5) =   2
                l(6) =   2
     Q(r) pseudized with 0 coefficients 


     PseudoPot. # 2 for Fe read from file:
     ./../../../pseudos/Fe.pbesol-spn-kjpaw_psl.1.0.0.UPF
     MD5 check sum: e30d5f36a6f0cb983ee41abee56170da
     Pseudo is Projector augmented-wave + core cor, Zval = 16.0
     Generated using &quot;atomic&quot; code by A. Dal Corso  v.6.3
     Shape of augmentation charge: PSQ
     Using radial grid of 1191 points,  6 beta functions with: 
                l(1) =   0
                l(2) =   0
                l(3) =   1
                l(4) =   1
                l(5) =   2
                l(6) =   2
     Q(r) pseudized with 0 coefficients 


     atomic species   valence    mass     pseudopotential
     Fe1              16.00    55.84500     Fe( 1.00)
     Fe2              16.00    55.84500     Fe( 1.00)

     Starting magnetic structure 
     atomic species   magnetization
     Fe1             0.300
     Fe2            -0.300

     48 Sym. Ops., with inversion, found


                                    s                        frac. trans.

      isym =  1     identity                                     

 cryst.   s( 1) = (     1          0          0      )
                  (     0          1          0      )
                  (     0          0          1      )

 cart.    s( 1) = (  1.0000000  0.0000000  0.0000000 )
                  (  0.0000000  1.0000000  0.0000000 )
                  (  0.0000000  0.0000000  1.0000000 )


      isym =  2     180 deg rotation - cart. axis [0,0,1]        

 cryst.   s( 2) = (    -1          0          0      )
                  (     0         -1          0      )
                  (     0          0          1      )

 cart.    s( 2) = ( -1.0000000  0.0000000  0.0000000 )
                  (  0.0000000 -1.0000000  0.0000000 )
                  (  0.0000000  0.0000000  1.0000000 )


      isym =  3     180 deg rotation - cart. axis [0,1,0]        

 cryst.   s( 3) = (    -1          0          0      )
                  (     0          1          0      )
                  (     0          0         -1      )

 cart.    s( 3) = ( -1.0000000  0.0000000  0.0000000 )
                  (  0.0000000  1.0000000  0.0000000 )
                  (  0.0000000  0.0000000 -1.0000000 )


      isym =  4     180 deg rotation - cart. axis [1,0,0]        

 cryst.   s( 4) = (     1          0          0      )
                  (     0         -1          0      )
                  (     0          0         -1      )

 cart.    s( 4) = (  1.0000000  0.0000000  0.0000000 )
                  (  0.0000000 -1.0000000  0.0000000 )
                  (  0.0000000  0.0000000 -1.0000000 )


      isym =  5     180 deg rotation - cart. axis [1,1,0]        

 cryst.   s( 5) = (     0          1          0      )
                  (     1          0          0      )
                  (     0          0         -1      )

 cart.    s( 5) = (  0.0000000  1.0000000  0.0000000 )
                  (  1.0000000  0.0000000  0.0000000 )
                  (  0.0000000  0.0000000 -1.0000000 )


      isym =  6     180 deg rotation - cart. axis [1,-1,0]       

 cryst.   s( 6) = (     0         -1          0      )
                  (    -1          0          0      )
                  (     0          0         -1      )

 cart.    s( 6) = (  0.0000000 -1.0000000  0.0000000 )
                  ( -1.0000000  0.0000000  0.0000000 )
                  (  0.0000000  0.0000000 -1.0000000 )


      isym =  7      90 deg rotation - cart. axis [0,0,-1]       

 cryst.   s( 7) = (     0         -1          0      )
                  (     1          0          0      )
                  (     0          0          1      )

 cart.    s( 7) = (  0.0000000  1.0000000  0.0000000 )
                  ( -1.0000000  0.0000000  0.0000000 )
                  (  0.0000000  0.0000000  1.0000000 )


      isym =  8      90 deg rotation - cart. axis [0,0,1]        

 cryst.   s( 8) = (     0          1          0      )
                  (    -1          0          0      )
                  (     0          0          1      )

 cart.    s( 8) = (  0.0000000 -1.0000000  0.0000000 )
                  (  1.0000000  0.0000000  0.0000000 )
                  (  0.0000000  0.0000000  1.0000000 )


      isym =  9     180 deg rotation - cart. axis [1,0,1]        

 cryst.   s( 9) = (     0          0          1      )
                  (     0         -1          0      )
                  (     1          0          0      )

 cart.    s( 9) = (  0.0000000  0.0000000  1.0000000 )
                  (  0.0000000 -1.0000000  0.0000000 )
                  (  1.0000000  0.0000000  0.0000000 )


      isym = 10     180 deg rotation - cart. axis [-1,0,1]       

 cryst.   s(10) = (     0          0         -1      )
                  (     0         -1          0      )
                  (    -1          0          0      )

 cart.    s(10) = (  0.0000000  0.0000000 -1.0000000 )
                  (  0.0000000 -1.0000000  0.0000000 )
                  ( -1.0000000  0.0000000  0.0000000 )


      isym = 11      90 deg rotation - cart. axis [0,1,0]        

 cryst.   s(11) = (     0          0         -1      )
                  (     0          1          0      )
                  (     1          0          0      )

 cart.    s(11) = (  0.0000000  0.0000000  1.0000000 )
                  (  0.0000000  1.0000000  0.0000000 )
                  ( -1.0000000  0.0000000  0.0000000 )


      isym = 12      90 deg rotation - cart. axis [0,-1,0]       

 cryst.   s(12) = (     0          0          1      )
                  (     0          1          0      )
                  (    -1          0          0      )

 cart.    s(12) = (  0.0000000  0.0000000 -1.0000000 )
                  (  0.0000000  1.0000000  0.0000000 )
                  (  1.0000000  0.0000000  0.0000000 )


      isym = 13     180 deg rotation - cart. axis [0,1,1]        

 cryst.   s(13) = (    -1          0          0      )
                  (     0          0          1      )
                  (     0          1          0      )

 cart.    s(13) = ( -1.0000000  0.0000000  0.0000000 )
                  (  0.0000000  0.0000000  1.0000000 )
                  (  0.0000000  1.0000000  0.0000000 )


      isym = 14     180 deg rotation - cart. axis [0,1,-1]       

 cryst.   s(14) = (    -1          0          0      )
                  (     0          0         -1      )
                  (     0         -1          0      )

 cart.    s(14) = ( -1.0000000  0.0000000  0.0000000 )
                  (  0.0000000  0.0000000 -1.0000000 )
                  (  0.0000000 -1.0000000  0.0000000 )


      isym = 15      90 deg rotation - cart. axis [-1,0,0]       

 cryst.   s(15) = (     1          0          0      )
                  (     0          0         -1      )
                  (     0          1          0      )

 cart.    s(15) = (  1.0000000  0.0000000  0.0000000 )
                  (  0.0000000  0.0000000  1.0000000 )
                  (  0.0000000 -1.0000000  0.0000000 )


      isym = 16      90 deg rotation - cart. axis [1,0,0]        

 cryst.   s(16) = (     1          0          0      )
                  (     0          0          1      )
                  (     0         -1          0      )

 cart.    s(16) = (  1.0000000  0.0000000  0.0000000 )
                  (  0.0000000  0.0000000 -1.0000000 )
                  (  0.0000000  1.0000000  0.0000000 )


      isym = 17     120 deg rotation - cart. axis [-1,-1,-1]     

 cryst.   s(17) = (     0          0          1      )
                  (     1          0          0      )
                  (     0          1          0      )

 cart.    s(17) = (  0.0000000  1.0000000  0.0000000 )
                  (  0.0000000  0.0000000  1.0000000 )
                  (  1.0000000  0.0000000  0.0000000 )


      isym = 18     120 deg rotation - cart. axis [-1,1,1]       

 cryst.   s(18) = (     0          0         -1      )
                  (    -1          0          0      )
                  (     0          1          0      )

 cart.    s(18) = (  0.0000000 -1.0000000  0.0000000 )
                  (  0.0000000  0.0000000  1.0000000 )
                  ( -1.0000000  0.0000000  0.0000000 )


      isym = 19     120 deg rotation - cart. axis [1,1,-1]       

 cryst.   s(19) = (     0          0         -1      )
                  (     1          0          0      )
                  (     0         -1          0      )

 cart.    s(19) = (  0.0000000  1.0000000  0.0000000 )
                  (  0.0000000  0.0000000 -1.0000000 )
                  ( -1.0000000  0.0000000  0.0000000 )


      isym = 20     120 deg rotation - cart. axis [1,-1,1]       

 cryst.   s(20) = (     0          0          1      )
                  (    -1          0          0      )
                  (     0         -1          0      )

 cart.    s(20) = (  0.0000000 -1.0000000  0.0000000 )
                  (  0.0000000  0.0000000 -1.0000000 )
                  (  1.0000000  0.0000000  0.0000000 )


      isym = 21     120 deg rotation - cart. axis [1,1,1]        

 cryst.   s(21) = (     0          1          0      )
                  (     0          0          1      )
                  (     1          0          0      )

 cart.    s(21) = (  0.0000000  0.0000000  1.0000000 )
                  (  1.0000000  0.0000000  0.0000000 )
                  (  0.0000000  1.0000000  0.0000000 )


      isym = 22     120 deg rotation - cart. axis [-1,1,-1]      

 cryst.   s(22) = (     0         -1          0      )
                  (     0          0         -1      )
                  (     1          0          0      )

 cart.    s(22) = (  0.0000000  0.0000000  1.0000000 )
                  ( -1.0000000  0.0000000  0.0000000 )
                  (  0.0000000 -1.0000000  0.0000000 )


      isym = 23     120 deg rotation - cart. axis [1,-1,-1]      

 cryst.   s(23) = (     0         -1          0      )
                  (     0          0          1      )
                  (    -1          0          0      )

 cart.    s(23) = (  0.0000000  0.0000000 -1.0000000 )
                  ( -1.0000000  0.0000000  0.0000000 )
                  (  0.0000000  1.0000000  0.0000000 )


      isym = 24     120 deg rotation - cart. axis [-1,-1,1]      

 cryst.   s(24) = (     0          1          0      )
                  (     0          0         -1      )
                  (    -1          0          0      )

 cart.    s(24) = (  0.0000000  0.0000000 -1.0000000 )
                  (  1.0000000  0.0000000  0.0000000 )
                  (  0.0000000 -1.0000000  0.0000000 )


      isym = 25     inversion                                    

 cryst.   s(25) = (    -1          0          0      )
                  (     0         -1          0      )
                  (     0          0         -1      )

 cart.    s(25) = ( -1.0000000  0.0000000  0.0000000 )
                  (  0.0000000 -1.0000000  0.0000000 )
                  (  0.0000000  0.0000000 -1.0000000 )


      isym = 26     inv. 180 deg rotation - cart. axis [0,0,1]   

 cryst.   s(26) = (     1          0          0      )
                  (     0          1          0      )
                  (     0          0         -1      )

 cart.    s(26) = (  1.0000000  0.0000000  0.0000000 )
                  (  0.0000000  1.0000000  0.0000000 )
                  (  0.0000000  0.0000000 -1.0000000 )


      isym = 27     inv. 180 deg rotation - cart. axis [0,1,0]   

 cryst.   s(27) = (     1          0          0      )
                  (     0         -1          0      )
                  (     0          0          1      )

 cart.    s(27) = (  1.0000000  0.0000000  0.0000000 )
                  (  0.0000000 -1.0000000  0.0000000 )
                  (  0.0000000  0.0000000  1.0000000 )


      isym = 28     inv. 180 deg rotation - cart. axis [1,0,0]   

 cryst.   s(28) = (    -1          0          0      )
                  (     0          1          0      )
                  (     0          0          1      )

 cart.    s(28) = ( -1.0000000  0.0000000  0.0000000 )
                  (  0.0000000  1.0000000  0.0000000 )
                  (  0.0000000  0.0000000  1.0000000 )


      isym = 29     inv. 180 deg rotation - cart. axis [1,1,0]   

 cryst.   s(29) = (     0         -1          0      )
                  (    -1          0          0      )
                  (     0          0          1      )

 cart.    s(29) = (  0.0000000 -1.0000000  0.0000000 )
                  ( -1.0000000  0.0000000  0.0000000 )
                  (  0.0000000  0.0000000  1.0000000 )


      isym = 30     inv. 180 deg rotation - cart. axis [1,-1,0]  

 cryst.   s(30) = (     0          1          0      )
                  (     1          0          0      )
                  (     0          0          1      )

 cart.    s(30) = (  0.0000000  1.0000000  0.0000000 )
                  (  1.0000000  0.0000000  0.0000000 )
                  (  0.0000000  0.0000000  1.0000000 )


      isym = 31     inv.  90 deg rotation - cart. axis [0,0,-1]  

 cryst.   s(31) = (     0          1          0      )
                  (    -1          0          0      )
                  (     0          0         -1      )

 cart.    s(31) = (  0.0000000 -1.0000000  0.0000000 )
                  (  1.0000000  0.0000000  0.0000000 )
                  (  0.0000000  0.0000000 -1.0000000 )


      isym = 32     inv.  90 deg rotation - cart. axis [0,0,1]   

 cryst.   s(32) = (     0         -1          0      )
                  (     1          0          0      )
                  (     0          0         -1      )

 cart.    s(32) = (  0.0000000  1.0000000  0.0000000 )
                  ( -1.0000000  0.0000000  0.0000000 )
                  (  0.0000000  0.0000000 -1.0000000 )


      isym = 33     inv. 180 deg rotation - cart. axis [1,0,1]   

 cryst.   s(33) = (     0          0         -1      )
                  (     0          1          0      )
                  (    -1          0          0      )

 cart.    s(33) = (  0.0000000  0.0000000 -1.0000000 )
                  (  0.0000000  1.0000000  0.0000000 )
                  ( -1.0000000  0.0000000  0.0000000 )


      isym = 34     inv. 180 deg rotation - cart. axis [-1,0,1]  

 cryst.   s(34) = (     0          0          1      )
                  (     0          1          0      )
                  (     1          0          0      )

 cart.    s(34) = (  0.0000000  0.0000000  1.0000000 )
                  (  0.0000000  1.0000000  0.0000000 )
                  (  1.0000000  0.0000000  0.0000000 )


      isym = 35     inv.  90 deg rotation - cart. axis [0,1,0]   

 cryst.   s(35) = (     0          0          1      )
                  (     0         -1          0      )
                  (    -1          0          0      )

 cart.    s(35) = (  0.0000000  0.0000000 -1.0000000 )
                  (  0.0000000 -1.0000000  0.0000000 )
                  (  1.0000000  0.0000000  0.0000000 )


      isym = 36     inv.  90 deg rotation - cart. axis [0,-1,0]  

 cryst.   s(36) = (     0          0         -1      )
                  (     0         -1          0      )
                  (     1          0          0      )

 cart.    s(36) = (  0.0000000  0.0000000  1.0000000 )
                  (  0.0000000 -1.0000000  0.0000000 )
                  ( -1.0000000  0.0000000  0.0000000 )


      isym = 37     inv. 180 deg rotation - cart. axis [0,1,1]   

 cryst.   s(37) = (     1          0          0      )
                  (     0          0         -1      )
                  (     0         -1          0      )

 cart.    s(37) = (  1.0000000  0.0000000  0.0000000 )
                  (  0.0000000  0.0000000 -1.0000000 )
                  (  0.0000000 -1.0000000  0.0000000 )


      isym = 38     inv. 180 deg rotation - cart. axis [0,1,-1]  

 cryst.   s(38) = (     1          0          0      )
                  (     0          0          1      )
                  (     0          1          0      )

 cart.    s(38) = (  1.0000000  0.0000000  0.0000000 )
                  (  0.0000000  0.0000000  1.0000000 )
                  (  0.0000000  1.0000000  0.0000000 )


      isym = 39     inv.  90 deg rotation - cart. axis [-1,0,0]  

 cryst.   s(39) = (    -1          0          0      )
                  (     0          0          1      )
                  (     0         -1          0      )

 cart.    s(39) = ( -1.0000000  0.0000000  0.0000000 )
                  (  0.0000000  0.0000000 -1.0000000 )
                  (  0.0000000  1.0000000  0.0000000 )


      isym = 40     inv.  90 deg rotation - cart. axis [1,0,0]   

 cryst.   s(40) = (    -1          0          0      )
                  (     0          0         -1      )
                  (     0          1          0      )

 cart.    s(40) = ( -1.0000000  0.0000000  0.0000000 )
                  (  0.0000000  0.0000000  1.0000000 )
                  (  0.0000000 -1.0000000  0.0000000 )


      isym = 41     inv. 120 deg rotation - cart. axis [-1,-1,-1]

 cryst.   s(41) = (     0          0         -1      )
                  (    -1          0          0      )
                  (     0         -1          0      )

 cart.    s(41) = (  0.0000000 -1.0000000  0.0000000 )
                  (  0.0000000  0.0000000 -1.0000000 )
                  ( -1.0000000  0.0000000  0.0000000 )


      isym = 42     inv. 120 deg rotation - cart. axis [-1,1,1]  

 cryst.   s(42) = (     0          0          1      )
                  (     1          0          0      )
                  (     0         -1          0      )

 cart.    s(42) = (  0.0000000  1.0000000  0.0000000 )
                  (  0.0000000  0.0000000 -1.0000000 )
                  (  1.0000000  0.0000000  0.0000000 )


      isym = 43     inv. 120 deg rotation - cart. axis [1,1,-1]  

 cryst.   s(43) = (     0          0          1      )
                  (    -1          0          0      )
                  (     0          1          0      )

 cart.    s(43) = (  0.0000000 -1.0000000  0.0000000 )
                  (  0.0000000  0.0000000  1.0000000 )
                  (  1.0000000  0.0000000  0.0000000 )


      isym = 44     inv. 120 deg rotation - cart. axis [1,-1,1]  

 cryst.   s(44) = (     0          0         -1      )
                  (     1          0          0      )
                  (     0          1          0      )

 cart.    s(44) = (  0.0000000  1.0000000  0.0000000 )
                  (  0.0000000  0.0000000  1.0000000 )
                  ( -1.0000000  0.0000000  0.0000000 )


      isym = 45     inv. 120 deg rotation - cart. axis [1,1,1]   

 cryst.   s(45) = (     0         -1          0      )
                  (     0          0         -1      )
                  (    -1          0          0      )

 cart.    s(45) = (  0.0000000  0.0000000 -1.0000000 )
                  ( -1.0000000  0.0000000  0.0000000 )
                  (  0.0000000 -1.0000000  0.0000000 )


      isym = 46     inv. 120 deg rotation - cart. axis [-1,1,-1] 

 cryst.   s(46) = (     0          1          0      )
                  (     0          0          1      )
                  (    -1          0          0      )

 cart.    s(46) = (  0.0000000  0.0000000 -1.0000000 )
                  (  1.0000000  0.0000000  0.0000000 )
                  (  0.0000000  1.0000000  0.0000000 )


      isym = 47     inv. 120 deg rotation - cart. axis [1,-1,-1] 

 cryst.   s(47) = (     0          1          0      )
                  (     0          0         -1      )
                  (     1          0          0      )

 cart.    s(47) = (  0.0000000  0.0000000  1.0000000 )
                  (  1.0000000  0.0000000  0.0000000 )
                  (  0.0000000 -1.0000000  0.0000000 )


      isym = 48     inv. 120 deg rotation - cart. axis [-1,-1,1] 

 cryst.   s(48) = (     0         -1          0      )
                  (     0          0          1      )
                  (     1          0          0      )

 cart.    s(48) = (  0.0000000  0.0000000  1.0000000 )
                  ( -1.0000000  0.0000000  0.0000000 )
                  (  0.0000000  1.0000000  0.0000000 )


     point group O_h (m-3m) 
     there are 10 classes
     the character table:

       E     8C3   3C2   6C4   6C2'  i     8S6   3s_h  6S4   6s_d 
A_1g   1.00  1.00  1.00  1.00  1.00  1.00  1.00  1.00  1.00  1.00
A_2g   1.00  1.00  1.00 -1.00 -1.00  1.00  1.00  1.00 -1.00 -1.00
E_g    2.00 -1.00  2.00  0.00  0.00  2.00 -1.00  2.00  0.00  0.00
T_1g   3.00  0.00 -1.00  1.00 -1.00  3.00  0.00 -1.00  1.00 -1.00
T_2g   3.00  0.00 -1.00 -1.00  1.00  3.00  0.00 -1.00 -1.00  1.00
A_1u   1.00  1.00  1.00  1.00  1.00 -1.00 -1.00 -1.00 -1.00 -1.00
A_2u   1.00  1.00  1.00 -1.00 -1.00 -1.00 -1.00 -1.00  1.00  1.00
E_u    2.00 -1.00  2.00  0.00  0.00 -2.00  1.00 -2.00  0.00  0.00
T_1u   3.00  0.00 -1.00  1.00 -1.00 -3.00  0.00  1.00 -1.00  1.00
T_2u   3.00  0.00 -1.00 -1.00  1.00 -3.00  0.00  1.00  1.00 -1.00

     the symmetry operations in each class and the name of the first element:

     E        1
          identity                                               
     8C3     17   19   20   18   24   21   22   23
          120 deg rotation - cart. axis [-1,-1,-1]               
     3C2      2    4    3
          180 deg rotation - cart. axis [0,0,1]                  
     6C4      7    8   15   16   12   11
           90 deg rotation - cart. axis [0,0,-1]                 
     6C2'     5    6   14   13   10    9
          180 deg rotation - cart. axis [1,1,0]                  
     i       25
          inversion                                              
     8S6     41   43   44   42   48   45   46   47
          inv. 120 deg rotation - cart. axis [-1,-1,-1]          
     3s_h    26   28   27
          inv. 180 deg rotation - cart. axis [0,0,1]             
     6S4     31   32   39   40   36   35
          inv.  90 deg rotation - cart. axis [0,0,-1]            
     6s_d    29   30   38   37   34   33
          inv. 180 deg rotation - cart. axis [1,1,0]             

   Cartesian axes

     site n.     atom                  positions (alat units)
         1        Fe1    tau(   1) = (   0.0000000   0.0000000   0.0000000  )
         2        Fe2    tau(   2) = (   0.5000000   0.5000000   0.5000000  )

   Crystallographic axes

     site n.     atom                  positions (cryst. coord.)
         1        Fe1    tau(   1) = (  0.0000000  0.0000000  0.0000000  )
         2        Fe2    tau(   2) = (  0.5000000  0.5000000  0.5000000  )

     number of k points=    56  Gaussian smearing, width (Ry)=  0.0200
                       cart. coord. in units 2pi/alat
        k(    1) = (   0.0000000   0.0000000   0.0000000), wk =   0.0007513
        k(    2) = (   0.0000000   0.0000000   0.0909091), wk =   0.0045079
        k(    3) = (   0.0000000   0.0000000   0.1818182), wk =   0.0045079
        k(    4) = (   0.0000000   0.0000000   0.2727273), wk =   0.0045079
        k(    5) = (   0.0000000   0.0000000   0.3636364), wk =   0.0045079
        k(    6) = (   0.0000000   0.0000000   0.4545455), wk =   0.0045079
        k(    7) = (   0.0000000   0.0909091   0.0909091), wk =   0.0090158
        k(    8) = (   0.0000000   0.0909091   0.1818182), wk =   0.0180316
        k(    9) = (   0.0000000   0.0909091   0.2727273), wk =   0.0180316
        k(   10) = (   0.0000000   0.0909091   0.3636364), wk =   0.0180316
        k(   11) = (   0.0000000   0.0909091   0.4545455), wk =   0.0180316
        k(   12) = (   0.0000000   0.1818182   0.1818182), wk =   0.0090158
        k(   13) = (   0.0000000   0.1818182   0.2727273), wk =   0.0180316
        k(   14) = (   0.0000000   0.1818182   0.3636364), wk =   0.0180316
        k(   15) = (   0.0000000   0.1818182   0.4545455), wk =   0.0180316
        k(   16) = (   0.0000000   0.2727273   0.2727273), wk =   0.0090158
        k(   17) = (   0.0000000   0.2727273   0.3636364), wk =   0.0180316
        k(   18) = (   0.0000000   0.2727273   0.4545455), wk =   0.0180316
        k(   19) = (   0.0000000   0.3636364   0.3636364), wk =   0.0090158
        k(   20) = (   0.0000000   0.3636364   0.4545455), wk =   0.0180316
        k(   21) = (   0.0000000   0.4545455   0.4545455), wk =   0.0090158
        k(   22) = (   0.0909091   0.0909091   0.0909091), wk =   0.0060105
        k(   23) = (   0.0909091   0.0909091   0.1818182), wk =   0.0180316
        k(   24) = (   0.0909091   0.0909091   0.2727273), wk =   0.0180316
        k(   25) = (   0.0909091   0.0909091   0.3636364), wk =   0.0180316
        k(   26) = (   0.0909091   0.0909091   0.4545455), wk =   0.0180316
        k(   27) = (   0.0909091   0.1818182   0.1818182), wk =   0.0180316
        k(   28) = (   0.0909091   0.1818182   0.2727273), wk =   0.0360631
        k(   29) = (   0.0909091   0.1818182   0.3636364), wk =   0.0360631
        k(   30) = (   0.0909091   0.1818182   0.4545455), wk =   0.0360631
        k(   31) = (   0.0909091   0.2727273   0.2727273), wk =   0.0180316
        k(   32) = (   0.0909091   0.2727273   0.3636364), wk =   0.0360631
        k(   33) = (   0.0909091   0.2727273   0.4545455), wk =   0.0360631
        k(   34) = (   0.0909091   0.3636364   0.3636364), wk =   0.0180316
        k(   35) = (   0.0909091   0.3636364   0.4545455), wk =   0.0360631
        k(   36) = (   0.0909091   0.4545455   0.4545455), wk =   0.0180316
        k(   37) = (   0.1818182   0.1818182   0.1818182), wk =   0.0060105
        k(   38) = (   0.1818182   0.1818182   0.2727273), wk =   0.0180316
        k(   39) = (   0.1818182   0.1818182   0.3636364), wk =   0.0180316
        k(   40) = (   0.1818182   0.1818182   0.4545455), wk =   0.0180316
        k(   41) = (   0.1818182   0.2727273   0.2727273), wk =   0.0180316
        k(   42) = (   0.1818182   0.2727273   0.3636364), wk =   0.0360631
        k(   43) = (   0.1818182   0.2727273   0.4545455), wk =   0.0360631
        k(   44) = (   0.1818182   0.3636364   0.3636364), wk =   0.0180316
        k(   45) = (   0.1818182   0.3636364   0.4545455), wk =   0.0360631
        k(   46) = (   0.1818182   0.4545455   0.4545455), wk =   0.0180316
        k(   47) = (   0.2727273   0.2727273   0.2727273), wk =   0.0060105
        k(   48) = (   0.2727273   0.2727273   0.3636364), wk =   0.0180316
        k(   49) = (   0.2727273   0.2727273   0.4545455), wk =   0.0180316
        k(   50) = (   0.2727273   0.3636364   0.3636364), wk =   0.0180316
        k(   51) = (   0.2727273   0.3636364   0.4545455), wk =   0.0360631
        k(   52) = (   0.2727273   0.4545455   0.4545455), wk =   0.0180316
        k(   53) = (   0.3636364   0.3636364   0.3636364), wk =   0.0060105
        k(   54) = (   0.3636364   0.3636364   0.4545455), wk =   0.0180316
        k(   55) = (   0.3636364   0.4545455   0.4545455), wk =   0.0180316
        k(   56) = (   0.4545455   0.4545455   0.4545455), wk =   0.0060105

                       cryst. coord.
        k(    1) = (   0.0000000   0.0000000   0.0000000), wk =   0.0007513
        k(    2) = (   0.0000000   0.0000000   0.0909091), wk =   0.0045079
        k(    3) = (   0.0000000   0.0000000   0.1818182), wk =   0.0045079
        k(    4) = (   0.0000000   0.0000000   0.2727273), wk =   0.0045079
        k(    5) = (   0.0000000   0.0000000   0.3636364), wk =   0.0045079
        k(    6) = (   0.0000000   0.0000000   0.4545455), wk =   0.0045079
        k(    7) = (   0.0000000   0.0909091   0.0909091), wk =   0.0090158
        k(    8) = (   0.0000000   0.0909091   0.1818182), wk =   0.0180316
        k(    9) = (   0.0000000   0.0909091   0.2727273), wk =   0.0180316
        k(   10) = (   0.0000000   0.0909091   0.3636364), wk =   0.0180316
        k(   11) = (   0.0000000   0.0909091   0.4545455), wk =   0.0180316
        k(   12) = (   0.0000000   0.1818182   0.1818182), wk =   0.0090158
        k(   13) = (   0.0000000   0.1818182   0.2727273), wk =   0.0180316
        k(   14) = (   0.0000000   0.1818182   0.3636364), wk =   0.0180316
        k(   15) = (   0.0000000   0.1818182   0.4545455), wk =   0.0180316
        k(   16) = (   0.0000000   0.2727273   0.2727273), wk =   0.0090158
        k(   17) = (   0.0000000   0.2727273   0.3636364), wk =   0.0180316
        k(   18) = (   0.0000000   0.2727273   0.4545455), wk =   0.0180316
        k(   19) = (   0.0000000   0.3636364   0.3636364), wk =   0.0090158
        k(   20) = (   0.0000000   0.3636364   0.4545455), wk =   0.0180316
        k(   21) = (   0.0000000   0.4545455   0.4545455), wk =   0.0090158
        k(   22) = (   0.0909091   0.0909091   0.0909091), wk =   0.0060105
        k(   23) = (   0.0909091   0.0909091   0.1818182), wk =   0.0180316
        k(   24) = (   0.0909091   0.0909091   0.2727273), wk =   0.0180316
        k(   25) = (   0.0909091   0.0909091   0.3636364), wk =   0.0180316
        k(   26) = (   0.0909091   0.0909091   0.4545455), wk =   0.0180316
        k(   27) = (   0.0909091   0.1818182   0.1818182), wk =   0.0180316
        k(   28) = (   0.0909091   0.1818182   0.2727273), wk =   0.0360631
        k(   29) = (   0.0909091   0.1818182   0.3636364), wk =   0.0360631
        k(   30) = (   0.0909091   0.1818182   0.4545455), wk =   0.0360631
        k(   31) = (   0.0909091   0.2727273   0.2727273), wk =   0.0180316
        k(   32) = (   0.0909091   0.2727273   0.3636364), wk =   0.0360631
        k(   33) = (   0.0909091   0.2727273   0.4545455), wk =   0.0360631
        k(   34) = (   0.0909091   0.3636364   0.3636364), wk =   0.0180316
        k(   35) = (   0.0909091   0.3636364   0.4545455), wk =   0.0360631
        k(   36) = (   0.0909091   0.4545455   0.4545455), wk =   0.0180316
        k(   37) = (   0.1818182   0.1818182   0.1818182), wk =   0.0060105
        k(   38) = (   0.1818182   0.1818182   0.2727273), wk =   0.0180316
        k(   39) = (   0.1818182   0.1818182   0.3636364), wk =   0.0180316
        k(   40) = (   0.1818182   0.1818182   0.4545455), wk =   0.0180316
        k(   41) = (   0.1818182   0.2727273   0.2727273), wk =   0.0180316
        k(   42) = (   0.1818182   0.2727273   0.3636364), wk =   0.0360631
        k(   43) = (   0.1818182   0.2727273   0.4545455), wk =   0.0360631
        k(   44) = (   0.1818182   0.3636364   0.3636364), wk =   0.0180316
        k(   45) = (   0.1818182   0.3636364   0.4545455), wk =   0.0360631
        k(   46) = (   0.1818182   0.4545455   0.4545455), wk =   0.0180316
        k(   47) = (   0.2727273   0.2727273   0.2727273), wk =   0.0060105
        k(   48) = (   0.2727273   0.2727273   0.3636364), wk =   0.0180316
        k(   49) = (   0.2727273   0.2727273   0.4545455), wk =   0.0180316
        k(   50) = (   0.2727273   0.3636364   0.3636364), wk =   0.0180316
        k(   51) = (   0.2727273   0.3636364   0.4545455), wk =   0.0360631
        k(   52) = (   0.2727273   0.4545455   0.4545455), wk =   0.0180316
        k(   53) = (   0.3636364   0.3636364   0.3636364), wk =   0.0060105
        k(   54) = (   0.3636364   0.3636364   0.4545455), wk =   0.0180316
        k(   55) = (   0.3636364   0.4545455   0.4545455), wk =   0.0180316
        k(   56) = (   0.4545455   0.4545455   0.4545455), wk =   0.0060105

     Dense  grid:    73447 G-vectors     FFT dimensions: (  54,  54,  54)

     Smooth grid:    25821 G-vectors     FFT dimensions: (  40,  40,  40)

     Dynamical RAM for                 wfc:       0.17 MB

     Dynamical RAM for     wfc (w. buffer):      18.69 MB

     Dynamical RAM for           str. fact:       0.37 MB

     Dynamical RAM for           local pot:       0.00 MB

     Dynamical RAM for          nlocal pot:       0.30 MB

     Dynamical RAM for                qrad:       4.97 MB

     Dynamical RAM for          rho,v,vnew:       2.32 MB

     Dynamical RAM for               rhoin:       0.77 MB

     Dynamical RAM for            rho*nmix:       5.98 MB

     Dynamical RAM for           G-vectors:       0.73 MB

     Dynamical RAM for          h,s,v(r/c):       0.07 MB

     Dynamical RAM for          <psi|beta>:       0.01 MB

     Dynamical RAM for                 psi:       0.33 MB

     Dynamical RAM for                hpsi:       0.33 MB

     Dynamical RAM for                spsi:       0.33 MB

     Dynamical RAM for      wfcinit/wfcrot:       0.34 MB

     Dynamical RAM for           addusdens:      35.12 MB

     Dynamical RAM for          addusforce:      35.12 MB

     Dynamical RAM for         addusstress:      37.82 MB

     Estimated static dynamical RAM per process >      29.92 MB

     Estimated max dynamical RAM per process >      73.72 MB

     Estimated total dynamical RAM >     442.34 MB
     Generating pointlists ...
     new r_m :   0.3572 (alat units)  1.8832 (a.u.) for type    1
     new r_m :   0.3572 (alat units)  1.8832 (a.u.) for type    2

     Initial potential from superposition of free atoms

     starting charge      31.9992, renormalised to      32.0000
     Starting wfcs are   20 randomized atomic wfcs
     Checking if some PAW data can be deallocated... 
       PAW data deallocated on    3 nodes for type:  1
       PAW data deallocated on    3 nodes for type:  2

     total cpu time spent up to now is        3.7 secs

     Self-consistent Calculation

     iteration #  1     ecut=   120.00 Ry     beta= 0.70
     Davidson diagonalization with overlap

---- Real-time Memory Report at c_bands before calling an iterative solver
            83 MiB given to the printing process from OS
             0 MiB allocation reported by mallinfo(arena+hblkhd)
         21562 MiB available memory on the node where the printing process lives
------------------
     ethr =  1.00E-02,  avg # of iterations =  3.3

     Threshold (ethr) on eigenvalues was too large:
     Diagonalizing with lowered threshold

     Davidson diagonalization with overlap

---- Real-time Memory Report at c_bands before calling an iterative solver
           101 MiB given to the printing process from OS
             0 MiB allocation reported by mallinfo(arena+hblkhd)
         21540 MiB available memory on the node where the printing process lives
------------------
     ethr =  7.71E-04,  avg # of iterations =  1.8

     negative rho (up, down):  2.940E-05 2.977E-05

     total cpu time spent up to now is       16.9 secs

     total energy              =    -653.67770545 Ry
     estimated scf accuracy    <       0.25784942 Ry

     total magnetization       =     0.01 Bohr mag/cell
     absolute magnetization    =     5.72 Bohr mag/cell

     iteration #  2     ecut=   120.00 Ry     beta= 0.70
     Davidson diagonalization with overlap

---- Real-time Memory Report at c_bands before calling an iterative solver
           103 MiB given to the printing process from OS
             0 MiB allocation reported by mallinfo(arena+hblkhd)
         21818 MiB available memory on the node where the printing process lives
------------------
     ethr =  8.06E-04,  avg # of iterations =  2.9

     negative rho (up, down):  2.887E-05 2.947E-05

     total cpu time spent up to now is       24.8 secs

     total energy              =    -653.69936292 Ry
     estimated scf accuracy    <       0.15173441 Ry

     total magnetization       =     0.01 Bohr mag/cell
     absolute magnetization    =     5.04 Bohr mag/cell

     iteration #  3     ecut=   120.00 Ry     beta= 0.70
     Davidson diagonalization with overlap

---- Real-time Memory Report at c_bands before calling an iterative solver
           103 MiB given to the printing process from OS
             0 MiB allocation reported by mallinfo(arena+hblkhd)
         21364 MiB available memory on the node where the printing process lives
------------------
     ethr =  4.74E-04,  avg # of iterations =  2.3

     negative rho (up, down):  6.036E-05 5.901E-05

     total cpu time spent up to now is       32.2 secs

     total energy              =    -653.75107423 Ry
     estimated scf accuracy    <       0.06563750 Ry

     total magnetization       =    -0.01 Bohr mag/cell
     absolute magnetization    =     4.67 Bohr mag/cell

     iteration #  4     ecut=   120.00 Ry     beta= 0.70
     Davidson diagonalization with overlap

---- Real-time Memory Report at c_bands before calling an iterative solver
           104 MiB given to the printing process from OS
             0 MiB allocation reported by mallinfo(arena+hblkhd)
         21160 MiB available memory on the node where the printing process lives
------------------
     ethr =  2.05E-04,  avg # of iterations =  2.4

     negative rho (up, down):  5.461E-05 5.704E-05

     total cpu time spent up to now is       39.3 secs

     total energy              =    -653.76532233 Ry
     estimated scf accuracy    <       0.04088619 Ry

     total magnetization       =     0.17 Bohr mag/cell
     absolute magnetization    =     3.77 Bohr mag/cell

     iteration #  5     ecut=   120.00 Ry     beta= 0.70
     Davidson diagonalization with overlap

---- Real-time Memory Report at c_bands before calling an iterative solver
           104 MiB given to the printing process from OS
             0 MiB allocation reported by mallinfo(arena+hblkhd)
         21177 MiB available memory on the node where the printing process lives
------------------
     ethr =  1.28E-04,  avg # of iterations =  1.7

     total cpu time spent up to now is       46.6 secs

     total energy              =    -653.75680096 Ry
     estimated scf accuracy    <       0.03183127 Ry

     total magnetization       =    -0.15 Bohr mag/cell
     absolute magnetization    =     3.71 Bohr mag/cell

     iteration #  6     ecut=   120.00 Ry     beta= 0.70
     Davidson diagonalization with overlap

---- Real-time Memory Report at c_bands before calling an iterative solver
           104 MiB given to the printing process from OS
             0 MiB allocation reported by mallinfo(arena+hblkhd)
         21179 MiB available memory on the node where the printing process lives
------------------
     ethr =  9.95E-05,  avg # of iterations =  3.2

     total cpu time spent up to now is       54.0 secs

     total energy              =    -653.77634485 Ry
     estimated scf accuracy    <       0.00691584 Ry

     total magnetization       =    -0.00 Bohr mag/cell
     absolute magnetization    =     2.52 Bohr mag/cell

     iteration #  7     ecut=   120.00 Ry     beta= 0.70
     Davidson diagonalization with overlap

---- Real-time Memory Report at c_bands before calling an iterative solver
           104 MiB given to the printing process from OS
             0 MiB allocation reported by mallinfo(arena+hblkhd)
         21170 MiB available memory on the node where the printing process lives
------------------
     ethr =  2.16E-05,  avg # of iterations =  2.2

     total cpu time spent up to now is       60.9 secs

     total energy              =    -653.77763250 Ry
     estimated scf accuracy    <       0.00009670 Ry

     total magnetization       =     0.01 Bohr mag/cell
     absolute magnetization    =     2.59 Bohr mag/cell

     iteration #  8     ecut=   120.00 Ry     beta= 0.70
     Davidson diagonalization with overlap

---- Real-time Memory Report at c_bands before calling an iterative solver
           105 MiB given to the printing process from OS
             0 MiB allocation reported by mallinfo(arena+hblkhd)
         21178 MiB available memory on the node where the printing process lives
------------------
     ethr =  3.02E-07,  avg # of iterations =  4.1

     total cpu time spent up to now is       69.9 secs

     total energy              =    -653.77813366 Ry
     estimated scf accuracy    <       0.00015611 Ry

     total magnetization       =     0.01 Bohr mag/cell
     absolute magnetization    =     2.38 Bohr mag/cell

     iteration #  9     ecut=   120.00 Ry     beta= 0.70
     Davidson diagonalization with overlap

---- Real-time Memory Report at c_bands before calling an iterative solver
           105 MiB given to the printing process from OS
             0 MiB allocation reported by mallinfo(arena+hblkhd)
         21186 MiB available memory on the node where the printing process lives
------------------
     ethr =  3.02E-07,  avg # of iterations =  2.0

     total cpu time spent up to now is       77.1 secs

     total energy              =    -653.77813637 Ry
     estimated scf accuracy    <       0.00002179 Ry

     total magnetization       =     0.01 Bohr mag/cell
     absolute magnetization    =     2.36 Bohr mag/cell

     iteration # 10     ecut=   120.00 Ry     beta= 0.70
     Davidson diagonalization with overlap

---- Real-time Memory Report at c_bands before calling an iterative solver
           105 MiB given to the printing process from OS
             0 MiB allocation reported by mallinfo(arena+hblkhd)
         21193 MiB available memory on the node where the printing process lives
------------------
     ethr =  6.81E-08,  avg # of iterations =  3.4

     total cpu time spent up to now is       84.5 secs

     total energy              =    -653.77814682 Ry
     estimated scf accuracy    <       0.00001068 Ry

     total magnetization       =     0.02 Bohr mag/cell
     absolute magnetization    =     2.30 Bohr mag/cell

     iteration # 11     ecut=   120.00 Ry     beta= 0.70
     Davidson diagonalization with overlap

---- Real-time Memory Report at c_bands before calling an iterative solver
           105 MiB given to the printing process from OS
             0 MiB allocation reported by mallinfo(arena+hblkhd)
         21569 MiB available memory on the node where the printing process lives
------------------
     ethr =  3.34E-08,  avg # of iterations =  3.5

     total cpu time spent up to now is       91.6 secs

     total energy              =    -653.77815997 Ry
     estimated scf accuracy    <       0.00003418 Ry

     total magnetization       =     0.01 Bohr mag/cell
     absolute magnetization    =     2.34 Bohr mag/cell

     iteration # 12     ecut=   120.00 Ry     beta= 0.70
     Davidson diagonalization with overlap

---- Real-time Memory Report at c_bands before calling an iterative solver
           105 MiB given to the printing process from OS
             0 MiB allocation reported by mallinfo(arena+hblkhd)
         21583 MiB available memory on the node where the printing process lives
------------------
     ethr =  3.34E-08,  avg # of iterations =  2.0

     total cpu time spent up to now is       98.4 secs

     total energy              =    -653.77815573 Ry
     estimated scf accuracy    <       0.00001559 Ry

     total magnetization       =     0.03 Bohr mag/cell
     absolute magnetization    =     2.33 Bohr mag/cell

     iteration # 13     ecut=   120.00 Ry     beta= 0.70
     Davidson diagonalization with overlap

---- Real-time Memory Report at c_bands before calling an iterative solver
           105 MiB given to the printing process from OS
             0 MiB allocation reported by mallinfo(arena+hblkhd)
         21611 MiB available memory on the node where the printing process lives
------------------
     ethr =  3.34E-08,  avg # of iterations =  3.4

     total cpu time spent up to now is      106.2 secs

     total energy              =    -653.77816014 Ry
     estimated scf accuracy    <       0.00000282 Ry

     total magnetization       =     0.00 Bohr mag/cell
     absolute magnetization    =     2.31 Bohr mag/cell

     iteration # 14     ecut=   120.00 Ry     beta= 0.70
     Davidson diagonalization with overlap

---- Real-time Memory Report at c_bands before calling an iterative solver
           105 MiB given to the printing process from OS
             0 MiB allocation reported by mallinfo(arena+hblkhd)
         21141 MiB available memory on the node where the printing process lives
------------------
     ethr =  8.81E-09,  avg # of iterations =  3.3

     total cpu time spent up to now is      113.0 secs

     total energy              =    -653.77816982 Ry
     estimated scf accuracy    <       0.00000023 Ry

     total magnetization       =     0.00 Bohr mag/cell
     absolute magnetization    =     2.28 Bohr mag/cell

     iteration # 15     ecut=   120.00 Ry     beta= 0.70
     Davidson diagonalization with overlap

---- Real-time Memory Report at c_bands before calling an iterative solver
           105 MiB given to the printing process from OS
             0 MiB allocation reported by mallinfo(arena+hblkhd)
         21137 MiB available memory on the node where the printing process lives
------------------
     ethr =  7.11E-10,  avg # of iterations =  2.0

     total cpu time spent up to now is      120.4 secs

     total energy              =    -653.77816980 Ry
     estimated scf accuracy    <       0.00000006 Ry

     total magnetization       =     0.00 Bohr mag/cell
     absolute magnetization    =     2.28 Bohr mag/cell

     iteration # 16     ecut=   120.00 Ry     beta= 0.70
     Davidson diagonalization with overlap

---- Real-time Memory Report at c_bands before calling an iterative solver
           105 MiB given to the printing process from OS
             0 MiB allocation reported by mallinfo(arena+hblkhd)
         21176 MiB available memory on the node where the printing process lives
------------------
     ethr =  1.74E-10,  avg # of iterations =  2.6

     total cpu time spent up to now is      127.3 secs

     total energy              =    -653.77816985 Ry
     estimated scf accuracy    <          5.1E-10 Ry

     total magnetization       =    -0.00 Bohr mag/cell
     absolute magnetization    =     2.28 Bohr mag/cell

     iteration # 17     ecut=   120.00 Ry     beta= 0.70
     Davidson diagonalization with overlap

---- Real-time Memory Report at c_bands before calling an iterative solver
           105 MiB given to the printing process from OS
             0 MiB allocation reported by mallinfo(arena+hblkhd)
         21173 MiB available memory on the node where the printing process lives
------------------
     ethr =  1.58E-12,  avg # of iterations =  4.1

     total cpu time spent up to now is      136.8 secs

     total energy              =    -653.77816985 Ry
     estimated scf accuracy    <          1.9E-10 Ry

     total magnetization       =     0.00 Bohr mag/cell
     absolute magnetization    =     2.28 Bohr mag/cell

     iteration # 18     ecut=   120.00 Ry     beta= 0.70
     Davidson diagonalization with overlap

---- Real-time Memory Report at c_bands before calling an iterative solver
           105 MiB given to the printing process from OS
             0 MiB allocation reported by mallinfo(arena+hblkhd)
         21174 MiB available memory on the node where the printing process lives
------------------
     ethr =  5.96E-13,  avg # of iterations =  2.2

     Magnetic moment per site  (integrated on atomic sphere of radius R)
     atom   1 (R=0.357)  charge= 14.3524  magn=  1.0967
     atom   2 (R=0.357)  charge= 14.3524  magn= -1.0967

     total cpu time spent up to now is      143.3 secs

     End of self-consistent calculation

 ------ SPIN UP ------------


          k = 0.0000 0.0000 0.0000 (  3239 PWs)   bands (ev):

   -68.0846 -66.8342 -34.2586 -34.2586 -34.2586 -32.9942 -32.9942 -32.9942
    10.4266  14.7530  14.7530  17.5409  17.5409  17.5409  19.3895  19.3895
    20.4367  20.4367  20.4367  29.4288

     occupation numbers 
     1.0000   1.0000   1.0000   1.0000   1.0000   1.0000   1.0000   1.0000
     1.0000   1.0000   1.0000   1.0000   1.0000   1.0000   0.3894   0.3894
     0.0000   0.0000   0.0000   0.0000

          k = 0.0000 0.0000 0.0909 (  3239 PWs)   bands (ev):

   -68.0836 -66.8342 -34.2631 -34.2561 -34.2561 -33.0032 -32.9958 -32.9958
    10.6056  14.8298  14.8337  17.5333  17.5333  17.5904  19.2980  19.4247
    20.2621  20.2621  20.3807  28.3693

     occupation numbers 
     1.0000   1.0000   1.0000   1.0000   1.0000   1.0000   1.0000   1.0000
     1.0000   1.0000   1.0000   1.0000   1.0000   1.0000   0.5770   0.3213
     0.0000   0.0000   0.0000   0.0000

          k = 0.0000 0.0000 0.1818 (  3239 PWs)   bands (ev):

   -68.0809 -66.8340 -34.2749 -34.2494 -34.2494 -33.0272 -33.0002 -33.0002
    11.1292  15.0276  15.0697  17.5200  17.5200  17.7341  19.0324  19.5208
    19.8259  19.8259  20.2193  26.2673

     occupation numbers 
     1.0000   1.0000   1.0000   1.0000   1.0000   1.0000   1.0000   1.0000
     1.0000   1.0000   1.0000   1.0000   1.0000   1.0000   0.9423   0.1677
     0.0054   0.0054   0.0000   0.0000

          k = 0.0000 0.0000 0.2727 (  3222 PWs)   bands (ev):

   -68.0773 -66.8338 -34.2903 -34.2405 -34.2405 -33.0587 -33.0060 -33.0060
    11.9538  15.2432  15.4401  17.5246  17.5246  17.9566  18.6213  19.2974
    19.2974  19.6508  19.9737  24.1077

     occupation numbers 
     1.0000   1.0000   1.0000   1.0000   1.0000   1.0000   1.0000   1.0000
     1.0000   1.0000   1.0000   1.0000   1.0000   1.0000   0.9999   0.5782
     0.5782   0.0506   0.0005   0.0000

          k = 0.0000 0.0000 0.3636 (  3250 PWs)   bands (ev):

   -68.0741 -66.8336 -34.3045 -34.2323 -34.2323 -33.0876 -33.0115 -33.0115
    12.9894  15.2927  15.8992  17.5685  17.5685  18.1229  18.2243  18.8195
    18.8195  19.6845  19.7801  22.3139

     occupation numbers 
     1.0000   1.0000   1.0000   1.0000   1.0000   1.0000   1.0000   1.0000
     1.0000   1.0000   1.0000   1.0000   1.0000   1.0000   1.0000   0.9963
     0.9963   0.0348   0.0104   0.0000

          k = 0.0000 0.0000 0.4545 (  3242 PWs)   bands (ev):

   -68.0721 -66.8335 -34.3128 -34.2273 -34.2273 -33.1048 -33.0148 -33.0148
    14.0516  14.9526  16.3191  17.6353  17.6353  17.6789  18.4527  18.5116
    18.5116  19.4434  19.8755  21.2473

     occupation numbers 
     1.0000   1.0000   1.0000   1.0000   1.0000   1.0000   1.0000   1.0000
     1.0000   1.0000   1.0000   1.0000   1.0000   1.0000   1.0000   1.0000
     1.0000   0.2873   0.0025   0.0000

          k = 0.0000 0.0909 0.0909 (  3235 PWs)   bands (ev):

   -68.0826 -66.8341 -34.2661 -34.2559 -34.2538 -33.0101 -32.9985 -32.9973
    10.7820  14.9058  14.9128  17.4358  17.5168  17.7256  19.2852  19.3982
    19.9840  20.0893  20.4570  28.4511

     occupation numbers 
     1.0000   1.0000   1.0000   1.0000   1.0000   1.0000   1.0000   1.0000
     1.0000   1.0000   1.0000   1.0000   1.0000   1.0000   0.6029   0.3722
     0.0004   0.0000   0.0000   0.0000

          k = 0.0000 0.0909 0.1818 (  3241 PWs)   bands (ev):

   -68.0800 -66.8338 -34.2774 -34.2521 -34.2475 -33.0310 -33.0033 -33.0012
    11.2972  15.1007  15.1422  17.3537  17.4787  17.9200  19.0819  19.4778
    19.5218  19.6679  20.3936  26.4999

     occupation numbers 
     1.0000   1.0000   1.0000   1.0000   1.0000   1.0000   1.0000   1.0000
     1.0000   1.0000   1.0000   1.0000   1.0000   1.0000   0.9061   0.2296
     0.1663   0.0420   0.0000   0.0000

          k = 0.0000 0.0909 0.2727 (  3241 PWs)   bands (ev):

   -68.0766 -66.8334 -34.2930 -34.2463 -34.2391 -33.0589 -33.0090 -33.0064
    12.1054  15.3134  15.4937  17.3222  17.4396  18.1102  18.7442  19.0685
    19.1692  19.6273  20.1946  24.3148

     occupation numbers 
     1.0000   1.0000   1.0000   1.0000   1.0000   1.0000   1.0000   1.0000
     1.0000   1.0000   1.0000   1.0000   1.0000   1.0000   0.9989   0.9173
     0.8061   0.0646   0.0000   0.0000

          k = 0.0000 0.0909 0.3636 (  3262 PWs)   bands (ev):

   -68.0734 -66.8331 -34.3075 -34.2410 -34.2314 -33.0845 -33.0142 -33.0113
    13.1132  15.3502  15.9238  17.3585  17.3922  18.1113  18.3820  18.7711
    18.8955  19.7782  19.9130  22.4597

     occupation numbers 
     1.0000   1.0000   1.0000   1.0000   1.0000   1.0000   1.0000   1.0000
     1.0000   1.0000   1.0000   1.0000   1.0000   1.0000   1.0000   0.9983
     0.9889   0.0107   0.0013   0.0000

          k = 0.0000 0.0909 0.4545 (  3264 PWs)   bands (ev):

   -68.0715 -66.8329 -34.3160 -34.2379 -34.2267 -33.0997 -33.0173 -33.0142
    14.1386  15.0016  16.3112  17.2766  17.4517  17.9050  18.1710  18.5585
    19.0548  19.6322  19.9204  21.2883

     occupation numbers 
     1.0000   1.0000   1.0000   1.0000   1.0000   1.0000   1.0000   1.0000
     1.0000   1.0000   1.0000   1.0000   1.0000   1.0000   1.0000   1.0000
     0.9276   0.0615   0.0012   0.0000

          k = 0.0000 0.1818 0.1818 (  3245 PWs)   bands (ev):

   -68.0776 -66.8332 -34.2863 -34.2573 -34.2422 -33.0427 -33.0099 -33.0039
    11.7844  15.2446  15.3907  17.1601  17.3863  18.1254  19.1031  19.1269
    19.3028  19.4300  20.5135  26.5155

     occupation numbers 
     1.0000   1.0000   1.0000   1.0000   1.0000   1.0000   1.0000   1.0000
     1.0000   1.0000   1.0000   1.0000   1.0000   1.0000   0.8864   0.8607
     0.5674   0.3116   0.0000   0.0000

          k = 0.0000 0.1818 0.2727 (  3233 PWs)   bands (ev):

   -68.0745 -66.8325 -34.3010 -34.2614 -34.2353 -33.0600 -33.0162 -33.0074
    12.5359  15.3847  15.7487  17.0344  17.2977  18.0311  18.9162  18.9991
    19.0110  19.5472  20.4661  24.7156

     occupation numbers 
     1.0000   1.0000   1.0000   1.0000   1.0000   1.0000   1.0000   1.0000
     1.0000   1.0000   1.0000   1.0000   1.0000   1.0000   0.9853   0.9598
     0.9541   0.1355   0.0000   0.0000

          k = 0.0000 0.1818 0.3636 (  3270 PWs)   bands (ev):

   -68.0717 -66.8318 -34.3157 -34.2641 -34.2289 -33.0765 -33.0211 -33.0107
    13.4432  15.3649  16.1346  17.0045  17.2469  17.6765  18.7019  18.8040
    19.2666  19.7408  20.2792  22.7868

     occupation numbers 
     1.0000   1.0000   1.0000   1.0000   1.0000   1.0000   1.0000   1.0000
     1.0000   1.0000   1.0000   1.0000   1.0000   1.0000   0.9995   0.9971
     0.6397   0.0176   0.0000   0.0000

          k = 0.0000 0.1818 0.4545 (  3260 PWs)   bands (ev):

   -68.0700 -66.8314 -34.3247 -34.2656 -34.2251 -33.0863 -33.0239 -33.0127
    14.3256  15.0330  16.4367  17.0789  17.2095  17.3629  18.6546  18.7088
    19.5909  20.0100  20.0123  21.3915

     occupation numbers 
     1.0000   1.0000   1.0000   1.0000   1.0000   1.0000   1.0000   1.0000
     1.0000   1.0000   1.0000   1.0000   1.0000   1.0000   0.9998   0.9994
     0.0921   0.0002   0.0002   0.0000

          k = 0.0000 0.2727 0.2727 (  3243 PWs)   bands (ev):

   -68.0719 -66.8312 -34.3132 -34.2793 -34.2303 -33.0627 -33.0241 -33.0087
    13.1663  15.3555  16.1795  16.8128  17.2498  17.6152  18.7514  19.1815
    19.3222  19.4911  20.5908  24.4278

     occupation numbers 
     1.0000   1.0000   1.0000   1.0000   1.0000   1.0000   1.0000   1.0000
     1.0000   1.0000   1.0000   1.0000   1.0000   1.0000   0.9988   0.7880
     0.5273   0.2092   0.0000   0.0000

          k = 0.0000 0.2727 0.3636 (  3258 PWs)   bands (ev):

   -68.0695 -66.8301 -34.3270 -34.2935 -34.2257 -33.0667 -33.0297 -33.0100
    13.8561  15.1985  16.6310  16.7000  17.2020  17.3839  18.7373  19.1652
    19.6464  19.7036  20.5500  22.9553

     occupation numbers 
     1.0000   1.0000   1.0000   1.0000   1.0000   1.0000   1.0000   1.0000
     1.0000   1.0000   1.0000   1.0000   1.0000   1.0000   0.9991   0.8119
     0.0530   0.0278   0.0000   0.0000

          k = 0.0000 0.2727 0.4545 (  3273 PWs)   bands (ev):

   -68.0680 -66.8294 -34.3362 -34.3010 -34.2230 -33.0696 -33.0323 -33.0107
    14.4499  14.9042  16.7166  16.9009  16.9180  17.6082  18.7866  19.1509
    20.0429  20.0563  20.3714  21.4621

     occupation numbers 
     1.0000   1.0000   1.0000   1.0000   1.0000   1.0000   1.0000   1.0000
     1.0000   1.0000   1.0000   1.0000   1.0000   1.0000   0.9978   0.8312
     0.0001   0.0001   0.0000   0.0000

          k = 0.0000 0.3636 0.3636 (  3251 PWs)   bands (ev):

   -68.0674 -66.8285 -34.3384 -34.3192 -34.2228 -33.0587 -33.0367 -33.0093
    14.2086  14.9530  16.5065  16.8136  17.2547  17.8414  18.8826  19.3932
    19.5688  20.1022  20.6645  22.4268

     occupation numbers 
     1.0000   1.0000   1.0000   1.0000   1.0000   1.0000   1.0000   1.0000
     1.0000   1.0000   1.0000   1.0000   1.0000   1.0000   0.9907   0.3820
     0.1126   0.0000   0.0000   0.0000

          k = 0.0000 0.3636 0.4545 (  3256 PWs)   bands (ev):

   -68.0662 -66.8276 -34.3469 -34.3327 -34.2210 -33.0551 -33.0397 -33.0089
    14.4690  14.7067  16.4534  16.5591  17.7059  18.3733  18.9258  19.4672
    19.9152  20.4156  20.6163  21.2889

     occupation numbers 
     1.0000   1.0000   1.0000   1.0000   1.0000   1.0000   1.0000   1.0000
     1.0000   1.0000   1.0000   1.0000   1.0000   1.0000   0.9834   0.2467
     0.0013   0.0000   0.0000   0.0000

          k = 0.0000 0.4545 0.4545 (  3255 PWs)   bands (ev):

   -68.0651 -66.8265 -34.3536 -34.3510 -34.2198 -33.0469 -33.0439 -33.0078
    14.4773  14.5526  16.3298  16.3646  18.4879  18.8709  19.4241  19.6255
    19.6325  20.6397  20.7085  20.7092

     occupation numbers 
     1.0000   1.0000   1.0000   1.0000   1.0000   1.0000   1.0000   1.0000
     1.0000   1.0000   1.0000   1.0000   1.0000   0.9921   0.3224   0.0659
     0.0613   0.0000   0.0000   0.0000

          k = 0.0909 0.0909 0.0909 (  3242 PWs)   bands (ev):

   -68.0817 -66.8339 -34.2634 -34.2634 -34.2502 -33.0154 -33.0003 -33.0003
    10.9561  14.9858  14.9858  17.4159  17.4159  17.8543  19.3284  19.3284
    19.6178  20.2838  20.2838  28.7819

     occupation numbers 
     1.0000   1.0000   1.0000   1.0000   1.0000   1.0000   1.0000   1.0000
     1.0000   1.0000   1.0000   1.0000   1.0000   1.0000   0.5146   0.5146
     0.0711   0.0000   0.0000   0.0000

          k = 0.0909 0.0909 0.1818 (  3245 PWs)   bands (ev):

   -68.0791 -66.8335 -34.2774 -34.2564 -34.2470 -33.0332 -33.0050 -33.0046
    11.4640  15.1907  15.1982  17.2971  17.3632  18.0425  19.1293  19.1521
    19.4427  19.8560  20.3260  26.7437

     occupation numbers 
     1.0000   1.0000   1.0000   1.0000   1.0000   1.0000   1.0000   1.0000
     1.0000   1.0000   1.0000   1.0000   1.0000   1.0000   0.8580   0.8297
     0.2886   0.0034   0.0000   0.0000

          k = 0.0909 0.0909 0.2727 (  3237 PWs)   bands (ev):

   -68.0758 -66.8331 -34.2943 -34.2470 -34.2441 -33.0583 -33.0113 -33.0084
    12.2576  15.4061  15.5272  17.2451  17.2896  18.0859  18.8380  18.8966
    19.3472  19.5901  20.2084  24.5366

     occupation numbers 
     1.0000   1.0000   1.0000   1.0000   1.0000   1.0000   1.0000   1.0000
     1.0000   1.0000   1.0000   1.0000   1.0000   1.0000   0.9951   0.9887
     0.4756   0.0928   0.0000   0.0000

          k = 0.0909 0.0909 0.3636 (  3246 PWs)   bands (ev):

   -68.0728 -66.8326 -34.3096 -34.2419 -34.2383 -33.0815 -33.0172 -33.0115
    13.2406  15.4300  15.9264  17.1878  17.2954  17.8861  18.5366  18.8984
    19.0298  19.7254  20.0266  22.6387

     occupation numbers 
     1.0000   1.0000   1.0000   1.0000   1.0000   1.0000   1.0000   1.0000
     1.0000   1.0000   1.0000   1.0000   1.0000   1.0000   1.0000   0.9884
     0.9439   0.0213   0.0002   0.0000

          k = 0.0909 0.0909 0.4545 (  3268 PWs)   bands (ev):

   -68.0710 -66.8324 -34.3186 -34.2407 -34.2331 -33.0952 -33.0207 -33.0134
    14.2340  15.0659  16.2832  17.0420  17.4433  17.6958  18.3524  18.6189
    19.2125  19.7298  20.0657  21.3661

     occupation numbers 
     1.0000   1.0000   1.0000   1.0000   1.0000   1.0000   1.0000   1.0000
     1.0000   1.0000   1.0000   1.0000   1.0000   1.0000   1.0000   0.9999
     0.7386   0.0202   0.0001   0.0000

          k = 0.0909 0.1818 0.1818 (  3236 PWs)   bands (ev):

   -68.0769 -66.8329 -34.2833 -34.2613 -34.2461 -33.0421 -33.0120 -33.0084
    11.9470  15.3395  15.4408  17.1225  17.2494  18.0566  18.9169  19.1793
    19.3984  19.6380  20.3421  26.8306

     occupation numbers 
     1.0000   1.0000   1.0000   1.0000   1.0000   1.0000   1.0000   1.0000
     1.0000   1.0000   1.0000   1.0000   1.0000   1.0000   0.9852   0.7915
     0.3716   0.0579   0.0000   0.0000

          k = 0.0909 0.1818 0.2727 (  3247 PWs)   bands (ev):

   -68.0739 -66.8321 -34.2992 -34.2621 -34.2427 -33.0578 -33.0186 -33.0114
    12.6897  15.4980  15.7676  16.9887  17.1505  17.7472  19.0336  19.0958
    19.2567  19.5262  20.3227  24.9878

     occupation numbers 
     1.0000   1.0000   1.0000   1.0000   1.0000   1.0000   1.0000   1.0000
     1.0000   1.0000   1.0000   1.0000   1.0000   1.0000   0.9416   0.8935
     0.6587   0.1607   0.0000   0.0000

          k = 0.0909 0.1818 0.3636 (  3261 PWs)   bands (ev):

   -68.0711 -66.8313 -34.3156 -34.2637 -34.2371 -33.0739 -33.0243 -33.0127
    13.5809  15.4841  16.0952  16.9164  17.1274  17.4741  18.8418  18.9059
    19.4143  19.7538  20.2125  23.0430

     occupation numbers 
     1.0000   1.0000   1.0000   1.0000   1.0000   1.0000   1.0000   1.0000
     1.0000   1.0000   1.0000   1.0000   1.0000   1.0000   0.9948   0.9872
     0.3409   0.0148   0.0000   0.0000

          k = 0.0909 0.1818 0.4545 (  3264 PWs)   bands (ev):

   -68.0695 -66.8308 -34.3255 -34.2652 -34.2331 -33.0837 -33.0279 -33.0131
    14.4438  15.1344  16.3534  16.8371  17.2112  17.3541  18.7214  18.7762
    19.4554  20.0037  20.3581  21.5818

     occupation numbers 
     1.0000   1.0000   1.0000   1.0000   1.0000   1.0000   1.0000   1.0000
     1.0000   1.0000   1.0000   1.0000   1.0000   1.0000   0.9993   0.9982
     0.2665   0.0003   0.0000   0.0000

          k = 0.0909 0.2727 0.2727 (  3254 PWs)   bands (ev):

   -68.0713 -66.8308 -34.3097 -34.2803 -34.2384 -33.0602 -33.0267 -33.0137
    13.3207  15.4736  16.1904  16.7717  17.0894  17.3416  18.9473  19.2478
    19.4750  19.5503  20.4130  24.7800

     occupation numbers 
     1.0000   1.0000   1.0000   1.0000   1.0000   1.0000   1.0000   1.0000
     1.0000   1.0000   1.0000   1.0000   1.0000   1.0000   0.9781   0.6756
     0.2341   0.1320   0.0000   0.0000

          k = 0.0909 0.2727 0.3636 (  3254 PWs)   bands (ev):

   -68.0689 -66.8295 -34.3244 -34.2930 -34.2335 -33.0653 -33.0328 -33.0141
    14.0055  15.3181  16.5764  16.6533  17.0564  17.2208  18.8394  19.2119
    19.5641  20.0319  20.3843  23.3217

     occupation numbers 
     1.0000   1.0000   1.0000   1.0000   1.0000   1.0000   1.0000   1.0000
     1.0000   1.0000   1.0000   1.0000   1.0000   1.0000   0.9950   0.7395
     0.1173   0.0001   0.0000   0.0000

          k = 0.0909 0.2727 0.4545 (  3250 PWs)   bands (ev):

   -68.0675 -66.8288 -34.3348 -34.2990 -34.2304 -33.0694 -33.0362 -33.0135
    14.5868  15.0231  16.6329  16.6806  16.9785  17.5076  18.8255  19.1931
    19.6025  20.2647  20.6909  21.8326

     occupation numbers 
     1.0000   1.0000   1.0000   1.0000   1.0000   1.0000   1.0000   1.0000
     1.0000   1.0000   1.0000   1.0000   1.0000   1.0000   0.9960   0.7703
     0.0826   0.0000   0.0000   0.0000

          k = 0.0909 0.3636 0.3636 (  3246 PWs)   bands (ev):

   -68.0669 -66.8279 -34.3344 -34.3179 -34.2300 -33.0593 -33.0398 -33.0144
    14.3579  15.0706  16.4717  16.7161  17.2058  17.6034  18.8911  19.4456
    19.5103  20.4444  20.4807  22.9235

     occupation numbers 
     1.0000   1.0000   1.0000   1.0000   1.0000   1.0000   1.0000   1.0000
     1.0000   1.0000   1.0000   1.0000   1.0000   1.0000   0.9895   0.2834
     0.1817   0.0000   0.0000   0.0000

          k = 0.0909 0.3636 0.4545 (  3259 PWs)   bands (ev):

   -68.0657 -66.8270 -34.3436 -34.3295 -34.2278 -33.0570 -33.0433 -33.0139
    14.6067  14.8285  16.4152  16.5030  17.6112  18.1304  18.9215  19.4927
    19.5759  20.3806  21.0252  21.9127

     occupation numbers 
     1.0000   1.0000   1.0000   1.0000   1.0000   1.0000   1.0000   1.0000
     1.0000   1.0000   1.0000   1.0000   1.0000   1.0000   0.9843   0.2068
     0.1056   0.0000   0.0000   0.0000

          k = 0.0909 0.4545 0.4545 (  3241 PWs)   bands (ev):

   -68.0646 -66.8259 -34.3493 -34.3471 -34.2262 -33.0501 -33.0473 -33.0141
    14.6094  14.6772  16.3023  16.3322  18.3750  18.7150  19.0298  19.3004
    19.6687  20.3423  21.3411  21.6858

     occupation numbers 
     1.0000   1.0000   1.0000   1.0000   1.0000   1.0000   1.0000   1.0000
     1.0000   1.0000   1.0000   1.0000   1.0000   0.9994   0.9439   0.5722
     0.0416   0.0000   0.0000   0.0000

          k = 0.1818 0.1818 0.1818 (  3239 PWs)   bands (ev):

   -68.0748 -66.8320 -34.2752 -34.2752 -34.2535 -33.0430 -33.0177 -33.0177
    12.4154  15.5836  15.5836  17.0206  17.0206  17.6569  19.1289  19.3050
    19.3050  19.9403  19.9403  27.6628

     occupation numbers 
     1.0000   1.0000   1.0000   1.0000   1.0000   1.0000   1.0000   1.0000
     1.0000   1.0000   1.0000   1.0000   1.0000   1.0000   0.8584   0.5627
     0.5627   0.0008   0.0008   0.0000

          k = 0.1818 0.1818 0.2727 (  3254 PWs)   bands (ev):

   -68.0720 -66.8309 -34.2962 -34.2645 -34.2604 -33.0532 -33.0253 -33.0207
    13.1255  15.7954  15.8213  16.8752  16.8801  17.2458  19.1556  19.4230
    19.5080  19.5655  20.0834  25.6071

     occupation numbers 
     1.0000   1.0000   1.0000   1.0000   1.0000   1.0000   1.0000   1.0000
     1.0000   1.0000   1.0000   1.0000   1.0000   1.0000   0.8250   0.3245
     0.1848   0.1159   0.0001   0.0000

          k = 0.1818 0.1818 0.3636 (  3238 PWs)   bands (ev):

   -68.0695 -66.8299 -34.3160 -34.2662 -34.2546 -33.0677 -33.0324 -33.0182
    13.9535  15.7485  16.0371  16.7248  16.8992  17.1388  18.9684  19.1962
    19.4358  20.0665  20.1741  23.6213

     occupation numbers 
     1.0000   1.0000   1.0000   1.0000   1.0000   1.0000   1.0000   1.0000
     1.0000   1.0000   1.0000   1.0000   1.0000   1.0000   0.9718   0.7653
     0.3010   0.0001   0.0000   0.0000

          k = 0.1818 0.1818 0.4545 (  3252 PWs)   bands (ev):

   -68.0680 -66.8293 -34.3279 -34.2697 -34.2486 -33.0770 -33.0367 -33.0160
    14.7263  15.3371  16.2477  16.5770  17.0049  17.2666  18.8255  19.0499
    19.3177  20.1281  20.8680  22.0559

     occupation numbers 
     1.0000   1.0000   1.0000   1.0000   1.0000   1.0000   1.0000   1.0000
     1.0000   1.0000   1.0000   1.0000   1.0000   1.0000   0.9960   0.9311
     0.5366   0.0000   0.0000   0.0000

          k = 0.1818 0.2727 0.2727 (  3244 PWs)   bands (ev):

   -68.0696 -66.8295 -34.3003 -34.2832 -34.2598 -33.0534 -33.0338 -33.0269
    13.7572  15.8016  16.2168  16.6639  16.7729  16.8423  19.1550  19.4083
    19.5072  20.0646  20.0650  25.6669

     occupation numbers 
     1.0000   1.0000   1.0000   1.0000   1.0000   1.0000   1.0000   1.0000
     1.0000   1.0000   1.0000   1.0000   1.0000   1.0000   0.8258   0.3524
     0.1860   0.0001   0.0001   0.0000

          k = 0.1818 0.2727 0.3636 (  3238 PWs)   bands (ev):

   -68.0673 -66.8281 -34.3182 -34.2911 -34.2541 -33.0620 -33.0414 -33.0247
    14.4213  15.6418  16.3977  16.5349  16.7558  16.9356  18.9989  19.3591
    19.4773  20.1442  20.6571  24.1510

     occupation numbers 
     1.0000   1.0000   1.0000   1.0000   1.0000   1.0000   1.0000   1.0000
     1.0000   1.0000   1.0000   1.0000   1.0000   1.0000   0.9598   0.4511
     0.2304   0.0000   0.0000   0.0000

          k = 0.1818 0.2727 0.4545 (  3258 PWs)   bands (ev):

   -68.0660 -66.8273 -34.3314 -34.2942 -34.2498 -33.0689 -33.0461 -33.0215
    14.9488  15.3375  16.4089  16.4515  16.8394  17.2886  18.9090  19.2724
    19.3955  20.2067  21.4378  22.6029

     occupation numbers 
     1.0000   1.0000   1.0000   1.0000   1.0000   1.0000   1.0000   1.0000
     1.0000   1.0000   1.0000   1.0000   1.0000   1.0000   0.9867   0.6284
     0.3774   0.0000   0.0000   0.0000

          k = 0.1818 0.3636 0.3636 (  3249 PWs)   bands (ev):

   -68.0654 -66.8265 -34.3236 -34.3146 -34.2494 -33.0612 -33.0483 -33.0278
    14.7783  15.3904  16.3815  16.4984  17.0619  17.1120  18.9668  19.3360
    19.6102  20.1996  21.2587  23.9884

     occupation numbers 
     1.0000   1.0000   1.0000   1.0000   1.0000   1.0000   1.0000   1.0000
     1.0000   1.0000   1.0000   1.0000   1.0000   1.0000   0.9723   0.4988
     0.0767   0.0000   0.0000   0.0000

          k = 0.1818 0.3636 0.4545 (  3253 PWs)   bands (ev):

   -68.0642 -66.8255 -34.3350 -34.3208 -34.2461 -33.0624 -33.0531 -33.0273
    14.9800  15.1720  16.3181  16.3746  17.3128  17.6368  18.9541  19.2054
    19.6611  20.2553  21.9962  22.9929

     occupation numbers 
     1.0000   1.0000   1.0000   1.0000   1.0000   1.0000   1.0000   1.0000
     1.0000   1.0000   1.0000   1.0000   1.0000   1.0000   0.9762   0.7504
     0.0453   0.0000   0.0000   0.0000

          k = 0.1818 0.4545 0.4545 (  3251 PWs)   bands (ev):

   -68.0631 -66.8244 -34.3376 -34.3365 -34.2435 -33.0590 -33.0567 -33.0309
    14.9522  15.0494  16.2323  16.2526  17.9469  18.0066  18.9804  18.9913
    19.7924  20.2935  22.5336  22.9645

     occupation numbers 
     1.0000   1.0000   1.0000   1.0000   1.0000   1.0000   1.0000   1.0000
     1.0000   1.0000   1.0000   1.0000   1.0000   1.0000   0.9675   0.9632
     0.0088   0.0000   0.0000   0.0000

          k = 0.2727 0.2727 0.2727 (  3257 PWs)   bands (ev):

   -68.0673 -66.8278 -34.2877 -34.2877 -34.2870 -33.0456 -33.0434 -33.0434
    14.3790  16.2435  16.2435  16.3705  16.5282  16.5282  19.2557  19.2557
    19.8084  19.8084  20.6835  26.8558

     occupation numbers 
     1.0000   1.0000   1.0000   1.0000   1.0000   1.0000   1.0000   1.0000
     1.0000   1.0000   1.0000   1.0000   1.0000   1.0000   0.6606   0.6606
     0.0070   0.0070   0.0000   0.0000

          k = 0.2727 0.2727 0.3636 (  3252 PWs)   bands (ev):

   -68.0653 -66.8262 -34.3126 -34.2911 -34.2759 -33.0596 -33.0523 -33.0373
    14.9760  15.9443  16.2577  16.4089  16.4761  16.7690  19.0780  19.2397
    19.6910  20.0501  21.3729  25.0717

     occupation numbers 
     1.0000   1.0000   1.0000   1.0000   1.0000   1.0000   1.0000   1.0000
     1.0000   1.0000   1.0000   1.0000   1.0000   1.0000   0.9095   0.6905
     0.0323   0.0001   0.0000   0.0000

          k = 0.2727 0.2727 0.4545 (  3261 PWs)   bands (ev):

   -68.0641 -66.8253 -34.3273 -34.2934 -34.2689 -33.0687 -33.0577 -33.0330
    15.3289  15.6574  16.2596  16.3412  16.6217  17.1328  18.9761  19.1242
    19.6443  20.1965  22.2417  23.4598

     occupation numbers 
     1.0000   1.0000   1.0000   1.0000   1.0000   1.0000   1.0000   1.0000
     1.0000   1.0000   1.0000   1.0000   1.0000   1.0000   0.9691   0.8638
     0.0542   0.0000   0.0000   0.0000

          k = 0.2727 0.3636 0.3636 (  3261 PWs)   bands (ev):

   -68.0634 -66.8245 -34.3106 -34.3092 -34.2744 -33.0646 -33.0597 -33.0445
    15.3633  15.7941  16.2712  16.3155  16.6608  16.8502  19.0333  19.1437
    19.8459  20.1080  22.1419  25.3050

     occupation numbers 
     1.0000   1.0000   1.0000   1.0000   1.0000   1.0000   1.0000   1.0000
     1.0000   1.0000   1.0000   1.0000   1.0000   1.0000   0.9418   0.8405
     0.0040   0.0000   0.0000   0.0000

          k = 0.2727 0.3636 0.4545 (  3257 PWs)   bands (ev):

   -68.0623 -66.8235 -34.3240 -34.3092 -34.2695 -33.0696 -33.0658 -33.0449
    15.4316  15.6741  16.2037  16.2841  16.8858  17.2054  18.9870  19.0300
    19.8719  20.2287  23.0489  24.2008

     occupation numbers 
     1.0000   1.0000   1.0000   1.0000   1.0000   1.0000   1.0000   1.0000
     1.0000   1.0000   1.0000   1.0000   1.0000   1.0000   0.9649   0.9438
     0.0026   0.0000   0.0000   0.0000

          k = 0.2727 0.4545 0.4545 (  3247 PWs)   bands (ev):

   -68.0612 -66.8224 -34.3224 -34.3220 -34.2660 -33.0709 -33.0693 -33.0527
    15.3897  15.6111  16.1528  16.1726  17.3599  17.3901  18.9091  18.9828
    19.9755  20.2947  23.8468  24.4149

     occupation numbers 
     1.0000   1.0000   1.0000   1.0000   1.0000   1.0000   1.0000   1.0000
     1.0000   1.0000   1.0000   1.0000   1.0000   1.0000   0.9866   0.9666
     0.0004   0.0000   0.0000   0.0000

          k = 0.3636 0.3636 0.3636 (  3253 PWs)   bands (ev):

   -68.0616 -66.8227 -34.3085 -34.2957 -34.2957 -33.0704 -33.0704 -33.0570
    15.7221  16.1755  16.1804  16.1804  16.6383  16.6383  19.0236  19.0236
    20.0844  20.0844  23.0712  26.7870

     occupation numbers 
     1.0000   1.0000   1.0000   1.0000   1.0000   1.0000   1.0000   1.0000
     1.0000   1.0000   1.0000   1.0000   1.0000   1.0000   0.9475   0.9475
     0.0000   0.0000   0.0000   0.0000

          k = 0.3636 0.3636 0.4545 (  3246 PWs)   bands (ev):

   -68.0605 -66.8217 -34.3143 -34.3013 -34.2875 -33.0769 -33.0765 -33.0618
    15.7155  16.0129  16.1339  16.5046  16.5161  16.9564  18.9530  18.9731
    20.0802  20.2428  24.1168  25.3869

     occupation numbers 
     1.0000   1.0000   1.0000   1.0000   1.0000   1.0000   1.0000   1.0000
     1.0000   1.0000   1.0000   1.0000   1.0000   1.0000   0.9766   0.9702
     0.0001   0.0000   0.0000   0.0000

          k = 0.3636 0.4545 0.4545 (  3241 PWs)   bands (ev):

   -68.0595 -66.8206 -34.3092 -34.3074 -34.2866 -33.0820 -33.0811 -33.0728
    15.7823  16.0607  16.1001  16.2865  16.8978  16.9388  18.8911  18.9474
    20.1736  20.3040  25.1951  25.9986

     occupation numbers 
     1.0000   1.0000   1.0000   1.0000   1.0000   1.0000   1.0000   1.0000
     1.0000   1.0000   1.0000   1.0000   1.0000   1.0000   0.9895   0.9781
     0.0000   0.0000   0.0000   0.0000

          k = 0.4545 0.4545 0.4545 (  3244 PWs)   bands (ev):

   -68.0584 -66.8195 -34.3015 -34.2986 -34.2986 -33.0883 -33.0883 -33.0851
    15.9868  16.0885  16.0885  16.6733  16.6797  16.6797  18.8882  18.8882
    20.3107  20.3107  26.5301  27.6941

     occupation numbers 
     1.0000   1.0000   1.0000   1.0000   1.0000   1.0000   1.0000   1.0000
     1.0000   1.0000   1.0000   1.0000   1.0000   1.0000   0.9899   0.9899
     0.0000   0.0000   0.0000   0.0000

 ------ SPIN DOWN ----------


          k = 0.0000 0.0000 0.0000 (  3239 PWs)   bands (ev):

   -68.0846 -66.8342 -34.2586 -34.2586 -34.2586 -32.9942 -32.9942 -32.9942
    10.4266  14.7530  14.7530  17.5409  17.5409  17.5409  19.3895  19.3895
    20.4367  20.4367  20.4367  29.4288

     occupation numbers 
     1.0000   1.0000   1.0000   1.0000   1.0000   1.0000   1.0000   1.0000
     1.0000   1.0000   1.0000   1.0000   1.0000   1.0000   0.3893   0.3893
     0.0000   0.0000   0.0000   0.0000

          k = 0.0000 0.0000 0.0909 (  3239 PWs)   bands (ev):

   -68.0836 -66.8342 -34.2630 -34.2561 -34.2561 -33.0032 -32.9958 -32.9958
    10.6056  14.8298  14.8337  17.5333  17.5333  17.5904  19.2980  19.4247
    20.2621  20.2621  20.3807  28.3693

     occupation numbers 
     1.0000   1.0000   1.0000   1.0000   1.0000   1.0000   1.0000   1.0000
     1.0000   1.0000   1.0000   1.0000   1.0000   1.0000   0.5770   0.3212
     0.0000   0.0000   0.0000   0.0000

          k = 0.0000 0.0000 0.1818 (  3239 PWs)   bands (ev):

   -68.0808 -66.8340 -34.2749 -34.2494 -34.2494 -33.0272 -33.0002 -33.0002
    11.1292  15.0276  15.0697  17.5200  17.5200  17.7341  19.0324  19.5208
    19.8259  19.8259  20.2193  26.2673

     occupation numbers 
     1.0000   1.0000   1.0000   1.0000   1.0000   1.0000   1.0000   1.0000
     1.0000   1.0000   1.0000   1.0000   1.0000   1.0000   0.9423   0.1676
     0.0054   0.0054   0.0000   0.0000

          k = 0.0000 0.0000 0.2727 (  3222 PWs)   bands (ev):

   -68.0773 -66.8338 -34.2903 -34.2405 -34.2405 -33.0587 -33.0060 -33.0060
    11.9538  15.2433  15.4401  17.5246  17.5246  17.9566  18.6213  19.2974
    19.2974  19.6509  19.9737  24.1077

     occupation numbers 
     1.0000   1.0000   1.0000   1.0000   1.0000   1.0000   1.0000   1.0000
     1.0000   1.0000   1.0000   1.0000   1.0000   1.0000   0.9999   0.5782
     0.5782   0.0506   0.0005   0.0000

          k = 0.0000 0.0000 0.3636 (  3250 PWs)   bands (ev):

   -68.0740 -66.8336 -34.3045 -34.2323 -34.2323 -33.0876 -33.0115 -33.0115
    12.9894  15.2927  15.8992  17.5685  17.5685  18.1229  18.2243  18.8195
    18.8195  19.6845  19.7801  22.3140

     occupation numbers 
     1.0000   1.0000   1.0000   1.0000   1.0000   1.0000   1.0000   1.0000
     1.0000   1.0000   1.0000   1.0000   1.0000   1.0000   1.0000   0.9963
     0.9963   0.0348   0.0104   0.0000

          k = 0.0000 0.0000 0.4545 (  3242 PWs)   bands (ev):

   -68.0721 -66.8335 -34.3128 -34.2273 -34.2273 -33.1048 -33.0147 -33.0147
    14.0515  14.9526  16.3191  17.6354  17.6354  17.6789  18.4528  18.5116
    18.5116  19.4434  19.8755  21.2473

     occupation numbers 
     1.0000   1.0000   1.0000   1.0000   1.0000   1.0000   1.0000   1.0000
     1.0000   1.0000   1.0000   1.0000   1.0000   1.0000   1.0000   1.0000
     1.0000   0.2873   0.0025   0.0000

          k = 0.0000 0.0909 0.0909 (  3235 PWs)   bands (ev):

   -68.0826 -66.8340 -34.2661 -34.2559 -34.2537 -33.0101 -32.9985 -32.9973
[...]
     0.0826   0.0000   0.0000   0.0000

          k = 0.0909 0.3636 0.3636 (  3246 PWs)   bands (ev):

   -68.0669 -66.8279 -34.3344 -34.3179 -34.2300 -33.0593 -33.0398 -33.0144
    14.3579  15.0706  16.4717  16.7161  17.2058  17.6034  18.8911  19.4457
    19.5103  20.4444  20.4807  22.9235

     occupation numbers 
     1.0000   1.0000   1.0000   1.0000   1.0000   1.0000   1.0000   1.0000
     1.0000   1.0000   1.0000   1.0000   1.0000   1.0000   0.9895   0.2833
     0.1817   0.0000   0.0000   0.0000

          k = 0.0909 0.3636 0.4545 (  3259 PWs)   bands (ev):

   -68.0657 -66.8270 -34.3436 -34.3295 -34.2278 -33.0570 -33.0433 -33.0139
    14.6067  14.8285  16.4152  16.5030  17.6112  18.1304  18.9215  19.4927
    19.5760  20.3806  21.0253  21.9127

     occupation numbers 
     1.0000   1.0000   1.0000   1.0000   1.0000   1.0000   1.0000   1.0000
     1.0000   1.0000   1.0000   1.0000   1.0000   1.0000   0.9843   0.2068
     0.1056   0.0000   0.0000   0.0000

          k = 0.0909 0.4545 0.4545 (  3241 PWs)   bands (ev):

   -68.0646 -66.8259 -34.3493 -34.3471 -34.2262 -33.0501 -33.0473 -33.0141
    14.6094  14.6772  16.3023  16.3322  18.3750  18.7150  19.0298  19.3004
    19.6687  20.3423  21.3411  21.6858

     occupation numbers 
     1.0000   1.0000   1.0000   1.0000   1.0000   1.0000   1.0000   1.0000
     1.0000   1.0000   1.0000   1.0000   1.0000   0.9994   0.9439   0.5722
     0.0416   0.0000   0.0000   0.0000

          k = 0.1818 0.1818 0.1818 (  3239 PWs)   bands (ev):

   -68.0747 -66.8320 -34.2752 -34.2752 -34.2535 -33.0430 -33.0177 -33.0177
    12.4154  15.5836  15.5836  17.0206  17.0206  17.6569  19.1289  19.3050
    19.3050  19.9403  19.9403  27.6628

     occupation numbers 
     1.0000   1.0000   1.0000   1.0000   1.0000   1.0000   1.0000   1.0000
     1.0000   1.0000   1.0000   1.0000   1.0000   1.0000   0.8584   0.5627
     0.5627   0.0008   0.0008   0.0000

          k = 0.1818 0.1818 0.2727 (  3254 PWs)   bands (ev):

   -68.0720 -66.8309 -34.2962 -34.2645 -34.2604 -33.0532 -33.0253 -33.0207
    13.1255  15.7954  15.8213  16.8752  16.8801  17.2458  19.1556  19.4230
    19.5081  19.5655  20.0834  25.6071

     occupation numbers 
     1.0000   1.0000   1.0000   1.0000   1.0000   1.0000   1.0000   1.0000
     1.0000   1.0000   1.0000   1.0000   1.0000   1.0000   0.8250   0.3245
     0.1848   0.1159   0.0001   0.0000

          k = 0.1818 0.1818 0.3636 (  3238 PWs)   bands (ev):

   -68.0695 -66.8299 -34.3160 -34.2662 -34.2545 -33.0677 -33.0324 -33.0182
    13.9535  15.7485  16.0371  16.7248  16.8992  17.1388  18.9684  19.1962
    19.4358  20.0665  20.1741  23.6213

     occupation numbers 
     1.0000   1.0000   1.0000   1.0000   1.0000   1.0000   1.0000   1.0000
     1.0000   1.0000   1.0000   1.0000   1.0000   1.0000   0.9718   0.7653
     0.3010   0.0001   0.0000   0.0000

          k = 0.1818 0.1818 0.4545 (  3252 PWs)   bands (ev):

   -68.0680 -66.8293 -34.3279 -34.2697 -34.2486 -33.0770 -33.0367 -33.0160
    14.7263  15.3371  16.2477  16.5770  17.0049  17.2666  18.8255  19.0499
    19.3177  20.1281  20.8680  22.0559

     occupation numbers 
     1.0000   1.0000   1.0000   1.0000   1.0000   1.0000   1.0000   1.0000
     1.0000   1.0000   1.0000   1.0000   1.0000   1.0000   0.9960   0.9311
     0.5366   0.0000   0.0000   0.0000

          k = 0.1818 0.2727 0.2727 (  3244 PWs)   bands (ev):

   -68.0696 -66.8295 -34.3003 -34.2832 -34.2597 -33.0534 -33.0338 -33.0269
    13.7572  15.8016  16.2168  16.6639  16.7729  16.8423  19.1550  19.4083
    19.5072  20.0646  20.0650  25.6669

     occupation numbers 
     1.0000   1.0000   1.0000   1.0000   1.0000   1.0000   1.0000   1.0000
     1.0000   1.0000   1.0000   1.0000   1.0000   1.0000   0.8257   0.3524
     0.1860   0.0001   0.0001   0.0000

          k = 0.1818 0.2727 0.3636 (  3238 PWs)   bands (ev):

   -68.0673 -66.8281 -34.3182 -34.2911 -34.2541 -33.0620 -33.0414 -33.0247
    14.4213  15.6418  16.3977  16.5349  16.7558  16.9356  18.9989  19.3591
    19.4773  20.1442  20.6571  24.1510

     occupation numbers 
     1.0000   1.0000   1.0000   1.0000   1.0000   1.0000   1.0000   1.0000
     1.0000   1.0000   1.0000   1.0000   1.0000   1.0000   0.9598   0.4511
     0.2304   0.0000   0.0000   0.0000

          k = 0.1818 0.2727 0.4545 (  3258 PWs)   bands (ev):

   -68.0660 -66.8273 -34.3314 -34.2942 -34.2498 -33.0689 -33.0461 -33.0215
    14.9488  15.3375  16.4089  16.4515  16.8394  17.2886  18.9090  19.2724
    19.3955  20.2067  21.4378  22.6029

     occupation numbers 
     1.0000   1.0000   1.0000   1.0000   1.0000   1.0000   1.0000   1.0000
     1.0000   1.0000   1.0000   1.0000   1.0000   1.0000   0.9867   0.6284
     0.3774   0.0000   0.0000   0.0000

          k = 0.1818 0.3636 0.3636 (  3249 PWs)   bands (ev):

   -68.0654 -66.8265 -34.3236 -34.3146 -34.2494 -33.0612 -33.0483 -33.0278
    14.7783  15.3904  16.3815  16.4984  17.0619  17.1120  18.9668  19.3360
    19.6102  20.1996  21.2587  23.9884

     occupation numbers 
     1.0000   1.0000   1.0000   1.0000   1.0000   1.0000   1.0000   1.0000
     1.0000   1.0000   1.0000   1.0000   1.0000   1.0000   0.9723   0.4988
     0.0767   0.0000   0.0000   0.0000

          k = 0.1818 0.3636 0.4545 (  3253 PWs)   bands (ev):

   -68.0642 -66.8255 -34.3350 -34.3208 -34.2461 -33.0624 -33.0531 -33.0273
    14.9800  15.1720  16.3181  16.3746  17.3128  17.6368  18.9541  19.2054
    19.6611  20.2553  21.9962  22.9929

     occupation numbers 
     1.0000   1.0000   1.0000   1.0000   1.0000   1.0000   1.0000   1.0000
     1.0000   1.0000   1.0000   1.0000   1.0000   1.0000   0.9762   0.7504
     0.0453   0.0000   0.0000   0.0000

          k = 0.1818 0.4545 0.4545 (  3251 PWs)   bands (ev):

   -68.0631 -66.8244 -34.3376 -34.3365 -34.2435 -33.0590 -33.0567 -33.0309
    14.9522  15.0494  16.2324  16.2526  17.9469  18.0066  18.9804  18.9913
    19.7925  20.2935  22.5336  22.9645

     occupation numbers 
     1.0000   1.0000   1.0000   1.0000   1.0000   1.0000   1.0000   1.0000
     1.0000   1.0000   1.0000   1.0000   1.0000   1.0000   0.9675   0.9632
     0.0088   0.0000   0.0000   0.0000

          k = 0.2727 0.2727 0.2727 (  3257 PWs)   bands (ev):

   -68.0673 -66.8278 -34.2877 -34.2877 -34.2870 -33.0456 -33.0434 -33.0434
    14.3790  16.2435  16.2435  16.3705  16.5283  16.5283  19.2557  19.2557
    19.8084  19.8084  20.6835  26.8558

     occupation numbers 
     1.0000   1.0000   1.0000   1.0000   1.0000   1.0000   1.0000   1.0000
     1.0000   1.0000   1.0000   1.0000   1.0000   1.0000   0.6606   0.6606
     0.0070   0.0070   0.0000   0.0000

          k = 0.2727 0.2727 0.3636 (  3252 PWs)   bands (ev):

   -68.0653 -66.8262 -34.3125 -34.2910 -34.2759 -33.0596 -33.0523 -33.0373
    14.9760  15.9443  16.2577  16.4089  16.4761  16.7690  19.0780  19.2397
    19.6910  20.0501  21.3729  25.0717

     occupation numbers 
     1.0000   1.0000   1.0000   1.0000   1.0000   1.0000   1.0000   1.0000
     1.0000   1.0000   1.0000   1.0000   1.0000   1.0000   0.9095   0.6905
     0.0323   0.0001   0.0000   0.0000

          k = 0.2727 0.2727 0.4545 (  3261 PWs)   bands (ev):

   -68.0641 -66.8253 -34.3273 -34.2934 -34.2689 -33.0687 -33.0577 -33.0330
    15.3289  15.6574  16.2596  16.3412  16.6217  17.1328  18.9761  19.1242
    19.6443  20.1965  22.2417  23.4598

     occupation numbers 
     1.0000   1.0000   1.0000   1.0000   1.0000   1.0000   1.0000   1.0000
     1.0000   1.0000   1.0000   1.0000   1.0000   1.0000   0.9691   0.8638
     0.0542   0.0000   0.0000   0.0000

          k = 0.2727 0.3636 0.3636 (  3261 PWs)   bands (ev):

   -68.0634 -66.8245 -34.3106 -34.3092 -34.2744 -33.0646 -33.0597 -33.0445
    15.3633  15.7941  16.2712  16.3155  16.6608  16.8502  19.0333  19.1437
    19.8459  20.1080  22.1419  25.3050

     occupation numbers 
     1.0000   1.0000   1.0000   1.0000   1.0000   1.0000   1.0000   1.0000
     1.0000   1.0000   1.0000   1.0000   1.0000   1.0000   0.9418   0.8405
     0.0040   0.0000   0.0000   0.0000

          k = 0.2727 0.3636 0.4545 (  3257 PWs)   bands (ev):

   -68.0623 -66.8235 -34.3240 -34.3092 -34.2695 -33.0696 -33.0658 -33.0449
    15.4316  15.6741  16.2037  16.2841  16.8858  17.2054  18.9870  19.0300
    19.8720  20.2287  23.0489  24.2008

     occupation numbers 
     1.0000   1.0000   1.0000   1.0000   1.0000   1.0000   1.0000   1.0000
     1.0000   1.0000   1.0000   1.0000   1.0000   1.0000   0.9649   0.9438
     0.0026   0.0000   0.0000   0.0000

          k = 0.2727 0.4545 0.4545 (  3247 PWs)   bands (ev):

   -68.0612 -66.8224 -34.3224 -34.3220 -34.2660 -33.0709 -33.0693 -33.0527
    15.3897  15.6111  16.1528  16.1726  17.3599  17.3901  18.9091  18.9828
    19.9755  20.2947  23.8468  24.4149

     occupation numbers 
     1.0000   1.0000   1.0000   1.0000   1.0000   1.0000   1.0000   1.0000
     1.0000   1.0000   1.0000   1.0000   1.0000   1.0000   0.9866   0.9666
     0.0004   0.0000   0.0000   0.0000

          k = 0.3636 0.3636 0.3636 (  3253 PWs)   bands (ev):

   -68.0616 -66.8227 -34.3085 -34.2957 -34.2957 -33.0704 -33.0704 -33.0570
    15.7221  16.1755  16.1804  16.1804  16.6383  16.6383  19.0236  19.0236
    20.0844  20.0844  23.0712  26.7870

     occupation numbers 
     1.0000   1.0000   1.0000   1.0000   1.0000   1.0000   1.0000   1.0000
     1.0000   1.0000   1.0000   1.0000   1.0000   1.0000   0.9474   0.9474
     0.0000   0.0000   0.0000   0.0000

          k = 0.3636 0.3636 0.4545 (  3246 PWs)   bands (ev):

   -68.0605 -66.8217 -34.3143 -34.3013 -34.2875 -33.0768 -33.0765 -33.0618
    15.7155  16.0129  16.1339  16.5046  16.5161  16.9564  18.9530  18.9731
    20.0803  20.2428  24.1168  25.3869

     occupation numbers 
     1.0000   1.0000   1.0000   1.0000   1.0000   1.0000   1.0000   1.0000
     1.0000   1.0000   1.0000   1.0000   1.0000   1.0000   0.9766   0.9702
     0.0001   0.0000   0.0000   0.0000

          k = 0.3636 0.4545 0.4545 (  3241 PWs)   bands (ev):

   -68.0594 -66.8206 -34.3092 -34.3074 -34.2866 -33.0820 -33.0811 -33.0728
    15.7823  16.0607  16.1001  16.2865  16.8978  16.9388  18.8911  18.9474
    20.1736  20.3040  25.1951  25.9986

     occupation numbers 
     1.0000   1.0000   1.0000   1.0000   1.0000   1.0000   1.0000   1.0000
     1.0000   1.0000   1.0000   1.0000   1.0000   1.0000   0.9895   0.9781
     0.0000   0.0000   0.0000   0.0000

          k = 0.4545 0.4545 0.4545 (  3244 PWs)   bands (ev):

   -68.0584 -66.8195 -34.3015 -34.2986 -34.2986 -33.0883 -33.0883 -33.0851
    15.9868  16.0885  16.0885  16.6733  16.6797  16.6797  18.8882  18.8882
    20.3107  20.3107  26.5301  27.6941

     occupation numbers 
     1.0000   1.0000   1.0000   1.0000   1.0000   1.0000   1.0000   1.0000
     1.0000   1.0000   1.0000   1.0000   1.0000   1.0000   0.9899   0.9899
     0.0000   0.0000   0.0000   0.0000

     the Fermi energy is    19.3354 ev

!    total energy              =    -653.77816985 Ry
     total all-electron energy =     -5086.429588 Ry
     estimated scf accuracy    <          1.1E-11 Ry
     smearing contrib. (-TS)   =      -0.01485102 Ry
     internal energy E=F+TS    =    -653.76331883 Ry

     The total energy is F=E-TS. E is the sum of the following terms:
     one-electron contribution =    -210.46956215 Ry
     hartree contribution      =     126.36662603 Ry
     xc contribution           =     -54.74237215 Ry
     ewald contribution        =    -353.46245192 Ry
     one-center paw contrib.   =    -161.45555864 Ry
      -> PAW hartree energy AE =     182.71413715 Ry
      -> PAW hartree energy PS =    -181.41479200 Ry
      -> PAW xc energy AE      =    -107.66417546 Ry
      -> PAW xc energy PS      =      25.63705080 Ry
      -> total E_H with PAW    =     127.66597119 Ry
      -> total E_XC with PAW   =    -136.76949681 Ry

     total magnetization       =     0.00 Bohr mag/cell
     absolute magnetization    =     2.28 Bohr mag/cell

     convergence has been achieved in  18 iterations

     Forces acting on atoms (cartesian axes, Ry/au):

     atom    1 type  1   force =     0.00000000    0.00000000    0.00000000
     atom    2 type  2   force =     0.00000000    0.00000000    0.00000000
     The non-local contrib.  to forces
     atom    1 type  1   force =     0.00000000    0.00000000    0.00000000
     atom    2 type  2   force =     0.00000000    0.00000000    0.00000000
     The ionic contribution  to forces
     atom    1 type  1   force =    -0.00000000   -0.00000000   -0.00000000
     atom    2 type  2   force =     0.00000000    0.00000000    0.00000000
     The local contribution  to forces
     atom    1 type  1   force =     0.00000000    0.00000000    0.00000000
     atom    2 type  2   force =     0.00000000    0.00000000    0.00000000
     The core correction contribution to forces
     atom    1 type  1   force =     0.00000000    0.00000000    0.00000000
     atom    2 type  2   force =    -0.00000000   -0.00000000   -0.00000000
     The Hubbard contrib.    to forces
     atom    1 type  1   force =     0.00000000    0.00000000    0.00000000
     atom    2 type  2   force =     0.00000000    0.00000000    0.00000000
     The SCF correction term to forces
     atom    1 type  1   force =     0.00000000   -0.00000000    0.00000000
     atom    2 type  2   force =     0.00000000    0.00000000   -0.00000000

     Total force =     0.000000     Total SCF correction =     0.000000


     Computing stress (Cartesian axis) and pressure

          total   stress  (Ry/bohr**3)                   (kbar)     P=     -101.62
  -0.00069079   0.00000000   0.00000000         -101.62        0.00        0.00
   0.00000000  -0.00069079   0.00000000            0.00     -101.62        0.00
   0.00000000   0.00000000  -0.00069079            0.00        0.00     -101.62

     kinetic stress (kbar) 103736.10      0.00      0.00
                                0.00 103736.10      0.00
                                0.00      0.00 103736.10

     local   stress (kbar)  17427.30      0.00      0.00
                                0.00  17427.30      0.00
                                0.00      0.00  17427.30

     nonloc. stress (kbar) -27811.66      0.00      0.00
                                0.00 -27811.66      0.00
                                0.00      0.00 -27811.66

     hartree stress (kbar)  42298.90     -0.00      0.00
                               -0.00  42298.90     -0.00
                                0.00     -0.00  42298.90

     exc-cor stress (kbar) -14605.64      0.00      0.00
                                0.00 -14605.64     -0.00
                                0.00     -0.00 -14605.64

     corecor stress (kbar)  -2831.58      0.00     -0.00
                                0.00  -2831.58     -0.00
                               -0.00     -0.00  -2831.58

     ewald   stress (kbar)-118315.03      0.00     -0.00
                                0.00-118315.03     -0.00
                               -0.00     -0.00-118315.03

     hubbard stress (kbar)      0.00      0.00      0.00
                                0.00      0.00      0.00
                                0.00      0.00      0.00

     DFT-D   stress (kbar)      0.00      0.00      0.00
                                0.00      0.00      0.00
                                0.00      0.00      0.00

     XDM     stress (kbar)      0.00      0.00      0.00
                                0.00      0.00      0.00
                                0.00      0.00      0.00

     dft-nl  stress (kbar)      0.00      0.00      0.00
                                0.00      0.00      0.00
                                0.00      0.00      0.00

     TS-vdW  stress (kbar)      0.00      0.00      0.00
                                0.00      0.00      0.00
                                0.00      0.00      0.00

     MDB     stress (kbar)      0.00      0.00      0.00
                                0.00      0.00      0.00
                                0.00      0.00      0.00

     3D-RISM stress (kbar)      0.00      0.00      0.00
                                0.00      0.00      0.00
                                0.00      0.00      0.00


     Writing all to output data dir ./temp/fe-afm.save/ :
     XML data file, charge density, pseudopotentials, collected wavefunctions

     init_run     :      3.02s CPU      3.31s WALL (       1 calls)
     electrons    :    129.18s CPU    139.58s WALL (       1 calls)
     forces       :      0.87s CPU      0.89s WALL (       1 calls)
     stress       :      3.36s CPU      3.45s WALL (       1 calls)

     Called by init_run:
     wfcinit      :      1.80s CPU      1.95s WALL (       1 calls)
     wfcinit:atom :      0.02s CPU      0.02s WALL (     112 calls)
     wfcinit:wfcr :      1.66s CPU      1.80s WALL (     112 calls)
     potinit      :      0.52s CPU      0.57s WALL (       1 calls)
     hinit0       :      0.41s CPU      0.43s WALL (       1 calls)

     Called by electrons:
     c_bands      :    104.01s CPU    112.57s WALL (      19 calls)
     sum_band     :     18.35s CPU     19.94s WALL (      19 calls)
     v_of_rho     :      0.81s CPU      0.86s WALL (      19 calls)
     v_h          :      0.03s CPU      0.03s WALL (      19 calls)
     v_xc         :      0.86s CPU      0.91s WALL (      21 calls)
     newd         :      2.29s CPU      2.39s WALL (      19 calls)
     PAW_pot      :      3.87s CPU      4.00s WALL (      19 calls)
     mix_rho      :      0.13s CPU      0.14s WALL (      19 calls)

     Called by c_bands:
     init_us_2    :      1.19s CPU      1.27s WALL (    4592 calls)
     cegterg      :    100.72s CPU    109.06s WALL (    2128 calls)

     Called by sum_band:
     sum_band:wei :      0.03s CPU      0.04s WALL (      19 calls)
     sum_band:loo :     13.94s CPU     15.38s WALL (      19 calls)
     sum_band:buf :      0.12s CPU      0.13s WALL (    2128 calls)
     sum_band:ini :      0.55s CPU      0.59s WALL (    2128 calls)
     sum_band:cal :      2.98s CPU      3.22s WALL (    2128 calls)
     sum_band:bec :      0.06s CPU      0.06s WALL (    2128 calls)
     addusdens    :      3.52s CPU      3.65s WALL (      19 calls)
                                        0.00s GPU  (      19 calls)
     addusd:skk   :      0.00s CPU      0.00s WALL (      38 calls)
                                        0.00s GPU  (      38 calls)

     Called by *egterg:
     cdiaghg      :      5.14s CPU      5.45s WALL (    7879 calls)
     cegterg:over :     10.39s CPU     10.91s WALL (    5863 calls)
     cegterg:upda :      3.90s CPU      4.13s WALL (    5863 calls)
     cegterg:last :      9.50s CPU      9.95s WALL (    4298 calls)
     h_psi        :     59.47s CPU     65.81s WALL (    8103 calls)
     s_psi        :      5.69s CPU      6.02s WALL (    8103 calls)
     g_psi        :      0.29s CPU      0.31s WALL (    5863 calls)

     Called by h_psi:
     h_psi:calbec :      7.69s CPU      8.37s WALL (    8103 calls)
     vloc_psi     :     45.80s CPU     51.14s WALL (    8103 calls)
     add_vuspsi   :      5.77s CPU      6.07s WALL (    8103 calls)

     General routines
     calbec       :     11.71s CPU     12.67s WALL (   10791 calls)
     fft          :      0.69s CPU      0.73s WALL (     515 calls)
     ffts         :      0.21s CPU      0.21s WALL (      76 calls)
     fftw         :     48.26s CPU     53.83s WALL (  257574 calls)
     interpolate  :      0.30s CPU      0.31s WALL (      38 calls)

     Parallel routines

     PAW routines
     PAW_pot      :      3.87s CPU      4.00s WALL (      19 calls)
     PAW_symme    :      0.05s CPU      0.05s WALL (      38 calls)

     PWSCF        :   2m16.92s CPU   2m27.93s WALL


   This run was terminated on:  15:15:25  11Dec2025            

=------------------------------------------------------------------------------=
   JOB DONE.
=------------------------------------------------------------------------------=
