
     Program PWSCF v.7.3.1 starts on  1Feb2025 at 10: 6: 7 

     This program is part of the open-source Quantum ESPRESSO suite
     for quantum simulation of materials; please cite
         "P. Giannozzi et al., J. Phys.:Condens. Matter 21 395502 (2009);
         "P. Giannozzi et al., J. Phys.:Condens. Matter 29 465901 (2017);
         "P. Giannozzi et al., J. Chem. Phys. 152 154105 (2020);
          URL http://www.quantum-espresso.org", 
     in publications or presentations arising from this work. More details at
     http://www.quantum-espresso.org/quote

     Parallel version (MPI), running on     6 processors

     MPI processes distributed on     1 nodes
     495 MiB available memory on the printing compute node when the environment starts

     Reading input from vc_relax.in

     Current dimensions of program PWSCF are:
     Max number of different atomic species (ntypx) = 10
     Max number of k-points (npk) =  40000
     Max angular momentum in pseudopotentials (lmaxx) =  4

     File ./temp/mns.update deleted, as requested

     File ./temp/mns.bfgs deleted, as requested
     file Mn.pbe-spn-kjpaw_psl.0.3.1.UPF: wavefunction(s)  3P 3D renormalized
     file S.pbe-n-kjpaw_psl.1.0.0.UPF: wavefunction(s)  3S 3P renormalized

     R & G space division:  proc/nbgrp/npool/nimage =       6
     Subspace diagonalization in iterative solution of the eigenvalue problem:
     a serial algorithm will be used


     Parallelization info
     --------------------
     sticks:   dense  smooth     PW     G-vecs:    dense   smooth      PW
     Min          93      75     24                 1464     1062     189
     Max          94      76     26                 1468     1063     190
     Sum         559     451    151                 8801     6375    1139

     Using Slab Decomposition



     bravais-lattice index     =           -5
     lattice parameter (alat)  =       7.3933  a.u.
     unit-cell volume          =     285.7574 (a.u.)^3
     number of atoms/cell      =            2
     number of atomic types    =            2
     number of electrons       =        21.00
     number of Kohn-Sham states=           15
     kinetic-energy cutoff     =      30.0000  Ry
     charge density cutoff     =     150.0000  Ry
     scf convergence threshold =      1.0E-10
     mixing beta               =       0.7000
     number of iterations used =            8  plain     mixing
     energy convergence thresh.=      1.0E-07
     force convergence thresh. =      1.0E-05
     press convergence thresh. =      5.0E-01
     Exchange-correlation= SLA  PW   PBX  PBC
                           (   1   4   3   4   0   0   0)
     nstep                     =           50


     celldm(1)=   7.393286  celldm(2)=   0.000000  celldm(3)=   0.000000
     celldm(4)=   0.500000  celldm(5)=   0.000000  celldm(6)=   0.000000

     crystal axes: (cart. coord. in units of alat)
               a(1) = (   0.000000   0.707107   0.707107 )  
               a(2) = (   0.707107   0.000000   0.707107 )  
               a(3) = (   0.707107   0.707107   0.000000 )  

     reciprocal axes: (cart. coord. in units 2 pi/alat)
               b(1) = ( -0.707107  0.707107  0.707107 )  
               b(2) = (  0.707107 -0.707107  0.707107 )  
               b(3) = (  0.707107  0.707107 -0.707107 )  


     PseudoPot. # 1 for Mn read from file:
     ./../../../pseudos/Mn.pbe-spn-kjpaw_psl.0.3.1.UPF
     MD5 check sum: ba19e6d7ccbc12830efad05ba8577d9c
     Pseudo is Projector augmented-wave + core cor, Zval = 15.0
     Generated using &quot;atomic&quot; code by A. Dal Corso  v.6.2.2
     Shape of augmentation charge: PSQ
     Using radial grid of 1187 points,  6 beta functions with: 
                l(1) =   0
                l(2) =   0
                l(3) =   1
                l(4) =   1
                l(5) =   2
                l(6) =   2
     Q(r) pseudized with 0 coefficients 


     PseudoPot. # 2 for S  read from file:
     ./../../../pseudos/S.pbe-n-kjpaw_psl.1.0.0.UPF
     MD5 check sum: fb45dfebcf3e72a4e1bd4a866ec2e262
     Pseudo is Projector augmented-wave + core cor, Zval =  6.0
     Generated using &quot;atomic&quot; code by A. Dal Corso  v.6.3
     Shape of augmentation charge: PSQ
     Using radial grid of 1151 points,  6 beta functions with: 
                l(1) =   0
                l(2) =   0
                l(3) =   1
                l(4) =   1
                l(5) =   2
                l(6) =   2
     Q(r) pseudized with 0 coefficients 


     atomic species   valence    mass     pseudopotential
     Mn               15.00    54.93800     Mn( 1.00)
     S                 6.00    32.06500     S ( 1.00)

     Starting magnetic structure 
     atomic species   magnetization
     Mn              0.200
     S               0.000

     24 Sym. Ops. (no inversion) found


                                    s                        frac. trans.

      isym =  1     identity                                     

 cryst.   s( 1) = (     1          0          0      )
                  (     0          1          0      )
                  (     0          0          1      )

 cart.    s( 1) = (  1.0000000  0.0000000  0.0000000 )
                  (  0.0000000  1.0000000  0.0000000 )
                  (  0.0000000  0.0000000  1.0000000 )


      isym =  2     180 deg rotation - cart. axis [0,0,1]        

 cryst.   s( 2) = (     0          1         -1      )
                  (     1          0         -1      )
                  (     0          0         -1      )

 cart.    s( 2) = ( -1.0000000  0.0000000  0.0000000 )
                  (  0.0000000 -1.0000000  0.0000000 )
                  (  0.0000000  0.0000000  1.0000000 )


      isym =  3     180 deg rotation - cart. axis [0,1,0]        

 cryst.   s( 3) = (     0         -1          1      )
                  (     0         -1          0      )
                  (     1         -1          0      )

 cart.    s( 3) = ( -1.0000000  0.0000000  0.0000000 )
                  (  0.0000000  1.0000000  0.0000000 )
                  (  0.0000000  0.0000000 -1.0000000 )


      isym =  4     180 deg rotation - cart. axis [1,0,0]        

 cryst.   s( 4) = (    -1          0          0      )
                  (    -1          0          1      )
                  (    -1          1          0      )

 cart.    s( 4) = (  1.0000000  0.0000000  0.0000000 )
                  (  0.0000000 -1.0000000  0.0000000 )
                  (  0.0000000  0.0000000 -1.0000000 )


      isym =  5     120 deg rotation - cart. axis [-1,-1,-1]     

 cryst.   s( 5) = (     0          0          1      )
                  (     1          0          0      )
                  (     0          1          0      )

 cart.    s( 5) = (  0.0000000  1.0000000  0.0000000 )
                  (  0.0000000  0.0000000  1.0000000 )
                  (  1.0000000  0.0000000  0.0000000 )


      isym =  6     120 deg rotation - cart. axis [-1,1,1]       

 cryst.   s( 6) = (     1         -1          0      )
                  (     0         -1          1      )
                  (     0         -1          0      )

 cart.    s( 6) = (  0.0000000 -1.0000000  0.0000000 )
                  (  0.0000000  0.0000000  1.0000000 )
                  ( -1.0000000  0.0000000  0.0000000 )


      isym =  7     120 deg rotation - cart. axis [1,1,-1]       

 cryst.   s( 7) = (    -1          1          0      )
                  (    -1          0          0      )
                  (    -1          0          1      )

 cart.    s( 7) = (  0.0000000  1.0000000  0.0000000 )
                  (  0.0000000  0.0000000 -1.0000000 )
                  ( -1.0000000  0.0000000  0.0000000 )


      isym =  8     120 deg rotation - cart. axis [1,-1,1]       

 cryst.   s( 8) = (     0          0         -1      )
                  (     0          1         -1      )
                  (     1          0         -1      )

 cart.    s( 8) = (  0.0000000 -1.0000000  0.0000000 )
                  (  0.0000000  0.0000000 -1.0000000 )
                  (  1.0000000  0.0000000  0.0000000 )


      isym =  9     120 deg rotation - cart. axis [1,1,1]        

 cryst.   s( 9) = (     0          1          0      )
                  (     0          0          1      )
                  (     1          0          0      )

 cart.    s( 9) = (  0.0000000  0.0000000  1.0000000 )
                  (  1.0000000  0.0000000  0.0000000 )
                  (  0.0000000  1.0000000  0.0000000 )


      isym = 10     120 deg rotation - cart. axis [-1,1,-1]      

 cryst.   s(10) = (    -1          0          1      )
                  (    -1          1          0      )
                  (    -1          0          0      )

 cart.    s(10) = (  0.0000000  0.0000000  1.0000000 )
                  ( -1.0000000  0.0000000  0.0000000 )
                  (  0.0000000 -1.0000000  0.0000000 )


      isym = 11     120 deg rotation - cart. axis [1,-1,-1]      

 cryst.   s(11) = (     1          0         -1      )
                  (     0          0         -1      )
                  (     0          1         -1      )

 cart.    s(11) = (  0.0000000  0.0000000 -1.0000000 )
                  ( -1.0000000  0.0000000  0.0000000 )
                  (  0.0000000  1.0000000  0.0000000 )


      isym = 12     120 deg rotation - cart. axis [-1,-1,1]      

 cryst.   s(12) = (     0         -1          0      )
                  (     1         -1          0      )
                  (     0         -1          1      )

 cart.    s(12) = (  0.0000000  0.0000000 -1.0000000 )
                  (  1.0000000  0.0000000  0.0000000 )
                  (  0.0000000 -1.0000000  0.0000000 )


      isym = 13     inv. 180 deg rotation - cart. axis [1,1,0]   

 cryst.   s(13) = (     1          0         -1      )
                  (     0          1         -1      )
                  (     0          0         -1      )

 cart.    s(13) = (  0.0000000 -1.0000000  0.0000000 )
                  ( -1.0000000  0.0000000  0.0000000 )
                  (  0.0000000  0.0000000  1.0000000 )


      isym = 14     inv. 180 deg rotation - cart. axis [1,-1,0]  

 cryst.   s(14) = (     0          1          0      )
                  (     1          0          0      )
                  (     0          0          1      )

 cart.    s(14) = (  0.0000000  1.0000000  0.0000000 )
                  (  1.0000000  0.0000000  0.0000000 )
                  (  0.0000000  0.0000000  1.0000000 )


      isym = 15     inv.  90 deg rotation - cart. axis [0,0,-1]  

 cryst.   s(15) = (     0         -1          0      )
                  (     0         -1          1      )
                  (     1         -1          0      )

 cart.    s(15) = (  0.0000000 -1.0000000  0.0000000 )
                  (  1.0000000  0.0000000  0.0000000 )
                  (  0.0000000  0.0000000 -1.0000000 )


      isym = 16     inv.  90 deg rotation - cart. axis [0,0,1]   

 cryst.   s(16) = (    -1          0          1      )
                  (    -1          0          0      )
                  (    -1          1          0      )

 cart.    s(16) = (  0.0000000  1.0000000  0.0000000 )
                  ( -1.0000000  0.0000000  0.0000000 )
                  (  0.0000000  0.0000000 -1.0000000 )


      isym = 17     inv. 180 deg rotation - cart. axis [1,0,1]   

 cryst.   s(17) = (     1         -1          0      )
                  (     0         -1          0      )
                  (     0         -1          1      )

 cart.    s(17) = (  0.0000000  0.0000000 -1.0000000 )
                  (  0.0000000  1.0000000  0.0000000 )
                  ( -1.0000000  0.0000000  0.0000000 )


      isym = 18     inv. 180 deg rotation - cart. axis [-1,0,1]  

 cryst.   s(18) = (     0          0          1      )
                  (     0          1          0      )
                  (     1          0          0      )

 cart.    s(18) = (  0.0000000  0.0000000  1.0000000 )
                  (  0.0000000  1.0000000  0.0000000 )
                  (  1.0000000  0.0000000  0.0000000 )


      isym = 19     inv.  90 deg rotation - cart. axis [0,1,0]   

 cryst.   s(19) = (     0          0         -1      )
                  (     1          0         -1      )
                  (     0          1         -1      )

 cart.    s(19) = (  0.0000000  0.0000000 -1.0000000 )
                  (  0.0000000 -1.0000000  0.0000000 )
                  (  1.0000000  0.0000000  0.0000000 )


      isym = 20     inv.  90 deg rotation - cart. axis [0,-1,0]  

 cryst.   s(20) = (    -1          1          0      )
                  (    -1          0          1      )
                  (    -1          0          0      )

 cart.    s(20) = (  0.0000000  0.0000000  1.0000000 )
                  (  0.0000000 -1.0000000  0.0000000 )
                  ( -1.0000000  0.0000000  0.0000000 )


      isym = 21     inv. 180 deg rotation - cart. axis [0,1,1]   

 cryst.   s(21) = (    -1          0          0      )
                  (    -1          1          0      )
                  (    -1          0          1      )

 cart.    s(21) = (  1.0000000  0.0000000  0.0000000 )
                  (  0.0000000  0.0000000 -1.0000000 )
                  (  0.0000000 -1.0000000  0.0000000 )


      isym = 22     inv. 180 deg rotation - cart. axis [0,1,-1]  

 cryst.   s(22) = (     1          0          0      )
                  (     0          0          1      )
                  (     0          1          0      )

 cart.    s(22) = (  1.0000000  0.0000000  0.0000000 )
                  (  0.0000000  0.0000000  1.0000000 )
                  (  0.0000000  1.0000000  0.0000000 )


      isym = 23     inv.  90 deg rotation - cart. axis [-1,0,0]  

 cryst.   s(23) = (     0          1         -1      )
                  (     0          0         -1      )
                  (     1          0         -1      )

 cart.    s(23) = ( -1.0000000  0.0000000  0.0000000 )
                  (  0.0000000  0.0000000 -1.0000000 )
                  (  0.0000000  1.0000000  0.0000000 )


      isym = 24     inv.  90 deg rotation - cart. axis [1,0,0]   

 cryst.   s(24) = (     0         -1          1      )
                  (     1         -1          0      )
                  (     0         -1          0      )

 cart.    s(24) = ( -1.0000000  0.0000000  0.0000000 )
                  (  0.0000000  0.0000000  1.0000000 )
                  (  0.0000000 -1.0000000  0.0000000 )


     point group T_d (-43m) 
     there are  5 classes
     the character table:

       E     8C3   3C2   6S4   6s_d 
A_1    1.00  1.00  1.00  1.00  1.00
A_2    1.00  1.00  1.00 -1.00 -1.00
E      2.00 -1.00  2.00  0.00  0.00
T_1    3.00  0.00 -1.00  1.00 -1.00
T_2    3.00  0.00 -1.00 -1.00  1.00

     the symmetry operations in each class and the name of the first element:

     E        1
          identity                                               
     8C3      5    7    8    6   12    9   10   11
          120 deg rotation - cart. axis [-1,-1,-1]               
     3C2      2    3    4
          180 deg rotation - cart. axis [0,0,1]                  
     6S4     15   16   20   19   23   24
          inv.  90 deg rotation - cart. axis [0,0,-1]            
     6s_d    13   14   17   18   21   22
          inv. 180 deg rotation - cart. axis [1,1,0]             

   Cartesian axes

     site n.     atom                  positions (alat units)
         1        Mn     tau(   1) = (   1.0606602   1.0606602   1.0606602  )
         2        S      tau(   2) = (   0.0000000   0.0000000   0.0000000  )

   Crystallographic axes

     site n.     atom                  positions (cryst. coord.)
         1        Mn     tau(   1) = (  0.7500000  0.7500000  0.7500000  )
         2        S      tau(   2) = (  0.0000000  0.0000000  0.0000000  )

     number of k points=    10  Gaussian smearing, width (Ry)=  0.0300
                       cart. coord. in units 2pi/alat
        k(    1) = (   0.0000000   0.0000000   0.0000000), wk =   0.0080000
        k(    2) = (   0.1414214   0.1414214  -0.1414214), wk =   0.0640000
        k(    3) = (   0.2828427   0.2828427  -0.2828427), wk =   0.0640000
        k(    4) = (   0.2828427   0.0000000   0.0000000), wk =   0.0480000
        k(    5) = (   0.4242641   0.1414214  -0.1414214), wk =   0.1920000
        k(    6) = (  -0.1414214  -0.4242641   0.4242641), wk =   0.1920000
        k(    7) = (   0.0000000  -0.2828427   0.2828427), wk =   0.0960000
        k(    8) = (   0.5656854   0.0000000   0.0000000), wk =   0.0480000
        k(    9) = (   0.0000000  -0.5656854   0.5656854), wk =   0.0960000
        k(   10) = (  -0.1414214  -0.4242641   0.7071068), wk =   0.1920000

                       cryst. coord.
        k(    1) = (   0.0000000   0.0000000   0.0000000), wk =   0.0080000
        k(    2) = (   0.0000000   0.0000000   0.2000000), wk =   0.0640000
        k(    3) = (   0.0000000   0.0000000   0.4000000), wk =   0.0640000
        k(    4) = (   0.0000000   0.2000000   0.2000000), wk =   0.0480000
        k(    5) = (   0.0000000   0.2000000   0.4000000), wk =   0.1920000
        k(    6) = (   0.0000000   0.2000000  -0.4000000), wk =   0.1920000
        k(    7) = (   0.0000000   0.2000000  -0.2000000), wk =   0.0960000
        k(    8) = (   0.0000000   0.4000000   0.4000000), wk =   0.0480000
        k(    9) = (   0.0000000   0.4000000  -0.4000000), wk =   0.0960000
        k(   10) = (   0.2000000   0.4000000  -0.4000000), wk =   0.1920000

     Dense  grid:     8801 G-vectors     FFT dimensions: (  30,  30,  30)

     Smooth grid:     6375 G-vectors     FFT dimensions: (  25,  25,  25)

     Dynamical RAM for                 wfc:       0.03 MB

     Dynamical RAM for     wfc (w. buffer):       0.63 MB

     Dynamical RAM for           str. fact:       0.04 MB

     Dynamical RAM for           local pot:       0.00 MB

     Dynamical RAM for          nlocal pot:       0.07 MB

     Dynamical RAM for                qrad:       3.94 MB

     Dynamical RAM for          rho,v,vnew:       0.34 MB

     Dynamical RAM for               rhoin:       0.11 MB

     Dynamical RAM for            rho*nmix:       0.72 MB

     Dynamical RAM for           G-vectors:       0.09 MB

     Dynamical RAM for          h,s,v(r/c):       0.04 MB

     Dynamical RAM for          <psi|beta>:       0.01 MB

     Dynamical RAM for                 psi:       0.06 MB

     Dynamical RAM for                hpsi:       0.06 MB

     Dynamical RAM for                spsi:       0.06 MB

     Dynamical RAM for      wfcinit/wfcrot:       0.07 MB

     Dynamical RAM for           addusdens:       4.20 MB

     Dynamical RAM for          addusforce:       4.21 MB

     Dynamical RAM for         addusstress:       4.53 MB

     Estimated static dynamical RAM per process >       5.51 MB

     Estimated max dynamical RAM per process >      10.75 MB

     Estimated total dynamical RAM >      64.49 MB

     Check: negative core charge=   -0.000237
     Generating pointlists ...
     new r_m :   0.2526 (alat units)  1.8676 (a.u.) for type    1
     new r_m :   0.2526 (alat units)  1.8676 (a.u.) for type    2

     Initial potential from superposition of free atoms

     starting charge      20.9995, renormalised to      21.0000
     Starting wfcs are   14 randomized atomic wfcs +    1 random wfcs
     Checking if some PAW data can be deallocated... 
       PAW data deallocated on    3 nodes for type:  1
       PAW data deallocated on    3 nodes for type:  2

     total cpu time spent up to now is        0.8 secs

     Self-consistent Calculation

     iteration #  1     ecut=    30.00 Ry     beta= 0.70
     Davidson diagonalization with overlap

---- Real-time Memory Report at c_bands before calling an iterative solver
            55 MiB given to the printing process from OS
             0 MiB allocation reported by mallinfo(arena+hblkhd)
           368 MiB available memory on the node where the printing process lives
------------------
     ethr =  1.00E-02,  avg # of iterations =  4.9

     Threshold (ethr) on eigenvalues was too large:
     Diagonalizing with lowered threshold

     Davidson diagonalization with overlap

---- Real-time Memory Report at c_bands before calling an iterative solver
            55 MiB given to the printing process from OS
             0 MiB allocation reported by mallinfo(arena+hblkhd)
           368 MiB available memory on the node where the printing process lives
------------------
     ethr =  2.63E-04,  avg # of iterations =  2.8

     total cpu time spent up to now is        1.4 secs

     total energy              =    -352.74023681 Ry
     estimated scf accuracy    <       0.05434672 Ry

     total magnetization       =     3.96 Bohr mag/cell
     absolute magnetization    =     3.96 Bohr mag/cell

     iteration #  2     ecut=    30.00 Ry     beta= 0.70
     Davidson diagonalization with overlap

---- Real-time Memory Report at c_bands before calling an iterative solver
            58 MiB given to the printing process from OS
             0 MiB allocation reported by mallinfo(arena+hblkhd)
           367 MiB available memory on the node where the printing process lives
------------------
     ethr =  2.59E-04,  avg # of iterations =  2.0

     total cpu time spent up to now is        1.8 secs

     total energy              =    -352.75718024 Ry
     estimated scf accuracy    <       0.00788784 Ry

     total magnetization       =     4.28 Bohr mag/cell
     absolute magnetization    =     4.28 Bohr mag/cell

     iteration #  3     ecut=    30.00 Ry     beta= 0.70
     Davidson diagonalization with overlap

---- Real-time Memory Report at c_bands before calling an iterative solver
            58 MiB given to the printing process from OS
             0 MiB allocation reported by mallinfo(arena+hblkhd)
           367 MiB available memory on the node where the printing process lives
------------------
     ethr =  3.76E-05,  avg # of iterations =  2.0

     total cpu time spent up to now is        2.2 secs

     total energy              =    -352.76135260 Ry
     estimated scf accuracy    <       0.00474095 Ry

     total magnetization       =     4.48 Bohr mag/cell
     absolute magnetization    =     4.48 Bohr mag/cell

     iteration #  4     ecut=    30.00 Ry     beta= 0.70
     Davidson diagonalization with overlap

---- Real-time Memory Report at c_bands before calling an iterative solver
            58 MiB given to the printing process from OS
             0 MiB allocation reported by mallinfo(arena+hblkhd)
           366 MiB available memory on the node where the printing process lives
------------------
     ethr =  2.26E-05,  avg # of iterations =  2.3

     total cpu time spent up to now is        2.6 secs

     total energy              =    -352.76271976 Ry
     estimated scf accuracy    <       0.00299637 Ry

     total magnetization       =     4.59 Bohr mag/cell
     absolute magnetization    =     4.59 Bohr mag/cell

     iteration #  5     ecut=    30.00 Ry     beta= 0.70
     Davidson diagonalization with overlap

---- Real-time Memory Report at c_bands before calling an iterative solver
            58 MiB given to the printing process from OS
             0 MiB allocation reported by mallinfo(arena+hblkhd)
           365 MiB available memory on the node where the printing process lives
------------------
     ethr =  1.43E-05,  avg # of iterations =  2.9

     total cpu time spent up to now is        3.0 secs

     total energy              =    -352.76347948 Ry
     estimated scf accuracy    <       0.00040092 Ry

     total magnetization       =     4.62 Bohr mag/cell
     absolute magnetization    =     4.62 Bohr mag/cell

     iteration #  6     ecut=    30.00 Ry     beta= 0.70
     Davidson diagonalization with overlap

---- Real-time Memory Report at c_bands before calling an iterative solver
            59 MiB given to the printing process from OS
             0 MiB allocation reported by mallinfo(arena+hblkhd)
           364 MiB available memory on the node where the printing process lives
------------------
     ethr =  1.91E-06,  avg # of iterations =  3.9

     total cpu time spent up to now is        3.5 secs

     total energy              =    -352.76359433 Ry
     estimated scf accuracy    <       0.00000291 Ry

     total magnetization       =     4.66 Bohr mag/cell
     absolute magnetization    =     4.66 Bohr mag/cell

     iteration #  7     ecut=    30.00 Ry     beta= 0.70
     Davidson diagonalization with overlap

---- Real-time Memory Report at c_bands before calling an iterative solver
            59 MiB given to the printing process from OS
             0 MiB allocation reported by mallinfo(arena+hblkhd)
           379 MiB available memory on the node where the printing process lives
------------------
     ethr =  1.39E-08,  avg # of iterations =  4.4

     total cpu time spent up to now is        4.0 secs

     total energy              =    -352.76359827 Ry
     estimated scf accuracy    <       0.00000020 Ry

     total magnetization       =     4.67 Bohr mag/cell
     absolute magnetization    =     4.67 Bohr mag/cell

     iteration #  8     ecut=    30.00 Ry     beta= 0.70
     Davidson diagonalization with overlap

---- Real-time Memory Report at c_bands before calling an iterative solver
            59 MiB given to the printing process from OS
             0 MiB allocation reported by mallinfo(arena+hblkhd)
           377 MiB available memory on the node where the printing process lives
------------------
     ethr =  9.73E-10,  avg # of iterations =  2.5

     total cpu time spent up to now is        4.4 secs

     total energy              =    -352.76359837 Ry
     estimated scf accuracy    <          8.2E-09 Ry

     total magnetization       =     4.66 Bohr mag/cell
     absolute magnetization    =     4.66 Bohr mag/cell

     iteration #  9     ecut=    30.00 Ry     beta= 0.70
     Davidson diagonalization with overlap

---- Real-time Memory Report at c_bands before calling an iterative solver
            59 MiB given to the printing process from OS
             0 MiB allocation reported by mallinfo(arena+hblkhd)
           376 MiB available memory on the node where the printing process lives
------------------
     ethr =  3.90E-11,  avg # of iterations =  3.5

     total cpu time spent up to now is        4.8 secs

     total energy              =    -352.76359838 Ry
     estimated scf accuracy    <          1.1E-09 Ry

     total magnetization       =     4.66 Bohr mag/cell
     absolute magnetization    =     4.66 Bohr mag/cell

     iteration # 10     ecut=    30.00 Ry     beta= 0.70
     Davidson diagonalization with overlap

---- Real-time Memory Report at c_bands before calling an iterative solver
            59 MiB given to the printing process from OS
             0 MiB allocation reported by mallinfo(arena+hblkhd)
           373 MiB available memory on the node where the printing process lives
------------------
     ethr =  5.03E-12,  avg # of iterations =  2.5

     Magnetic moment per site  (integrated on atomic sphere of radius R)
     atom   1 (R=0.253)  charge= 12.9020  magn=  3.9560
     atom   2 (R=0.253)  charge=  4.1390  magn=  0.0918

     total cpu time spent up to now is        5.2 secs

     End of self-consistent calculation

 ------ SPIN UP ------------


          k = 0.0000 0.0000 0.0000 (   821 PWs)   bands (ev):

   -74.4537 -43.1758 -43.1758 -43.1758  -6.2604   2.8728   2.8728   2.8728
     4.6964   4.6964   8.2591   8.2591   8.2591   9.0813  13.7005

     occupation numbers 
     1.0000   1.0000   1.0000   1.0000   1.0000   1.0000   1.0000   1.0000
     1.0000   1.0000   0.0365   0.0365   0.0365   0.0000   0.0000

          k = 0.1414 0.1414-0.1414 (   800 PWs)   bands (ev):

   -74.4533 -43.1768 -43.1757 -43.1757  -6.0323   2.5344   2.9832   2.9832
     4.7268   4.7268   6.7546   7.9123   7.9123  10.3974  13.6365

     occupation numbers 
     1.0000   1.0000   1.0000   1.0000   1.0000   1.0000   1.0000   1.0000
     1.0000   1.0000   0.9997   0.2773   0.2773   0.0000   0.0000

          k = 0.2828 0.2828-0.2828 (   796 PWs)   bands (ev):

   -74.4531 -43.1785 -43.1760 -43.1760  -5.6221   2.0502   3.0923   3.0923
     4.8192   4.8192   5.3483   7.2984   7.2984  11.0133  14.2448

     occupation numbers 
     1.0000   1.0000   1.0000   1.0000   1.0000   1.0000   1.0000   1.0000
     1.0000   1.0000   1.0000   0.9378   0.9378   0.0000   0.0000

          k = 0.2828 0.0000 0.0000 (   801 PWs)   bands (ev):

   -74.4533 -43.1766 -43.1760 -43.1760  -5.9574   2.4271   3.0483   3.0483
     4.5849   4.8122   7.0881   7.3545   7.3545  10.8473  12.7683

     occupation numbers 
     1.0000   1.0000   1.0000   1.0000   1.0000   1.0000   1.0000   1.0000
     1.0000   1.0000   0.9882   0.9101   0.9101   0.0000   0.0000

          k = 0.4243 0.1414-0.1414 (   797 PWs)   bands (ev):

   -74.4531 -43.1780 -43.1765 -43.1763  -5.6035   2.1559   3.0864   3.1930
     4.6261   4.9239   5.6614   6.7396   6.7925  11.6783  13.1929

     occupation numbers 
     1.0000   1.0000   1.0000   1.0000   1.0000   1.0000   1.0000   1.0000
     1.0000   1.0000   1.0000   0.9997   0.9995   0.0000   0.0000

          k =-0.1414-0.4243 0.4243 (   785 PWs)   bands (ev):

   -74.4529 -43.1783 -43.1767 -43.1762  -5.4539   2.2572   2.8797   3.2439
     4.7888   4.8192   5.2623   6.2393   6.9337  12.1270  13.3153

     occupation numbers 
     1.0000   1.0000   1.0000   1.0000   1.0000   1.0000   1.0000   1.0000
     1.0000   1.0000   1.0000   1.0000   0.9974   0.0000   0.0000

          k = 0.0000-0.2828 0.2828 (   797 PWs)   bands (ev):

   -74.4532 -43.1776 -43.1765 -43.1759  -5.7392   2.3290   2.9545   3.1021
     4.6496   4.8844   6.0948   6.4848   7.6347  11.8311  13.7010

     occupation numbers 
     1.0000   1.0000   1.0000   1.0000   1.0000   1.0000   1.0000   1.0000
     1.0000   1.0000   1.0000   1.0000   0.6446   0.0000   0.0000

          k = 0.5657 0.0000 0.0000 (   789 PWs)   bands (ev):

   -74.4529 -43.1783 -43.1767 -43.1767  -5.4148   1.8788   3.4648   3.4648
     4.5455   4.9728   5.6716   6.0717   6.0717  10.8389  12.4764

     occupation numbers 
     1.0000   1.0000   1.0000   1.0000   1.0000   1.0000   1.0000   1.0000
     1.0000   1.0000   1.0000   1.0000   1.0000   0.0000   0.0000

          k = 0.0000-0.5657 0.5657 (   794 PWs)   bands (ev):

   -74.4530 -43.1784 -43.1773 -43.1768  -5.3207   2.0683   3.2654   3.4569
     4.5910   4.8828   5.1322   5.7867   6.1367  11.4090  13.2061

     occupation numbers 
     1.0000   1.0000   1.0000   1.0000   1.0000   1.0000   1.0000   1.0000
     1.0000   1.0000   1.0000   1.0000   1.0000   0.0000   0.0000

          k =-0.1414-0.4243 0.7071 (   794 PWs)   bands (ev):

   -74.4530 -43.1783 -43.1772 -43.1767  -5.3743   2.3153   2.8729   3.4403
     4.7005   4.7918   5.3615   5.5925   6.4529  12.5080  13.6271

     occupation numbers 
     1.0000   1.0000   1.0000   1.0000   1.0000   1.0000   1.0000   1.0000
     1.0000   1.0000   1.0000   1.0000   1.0000   0.0000   0.0000

 ------ SPIN DOWN ----------


          k = 0.0000 0.0000 0.0000 (   821 PWs)   bands (ev):

   -70.0137 -38.7971 -38.7971 -38.7971  -5.9848   4.3439   4.3439   4.3439
     8.6135   8.6135   9.9349  10.8971  10.8971  10.8971  14.7089

     occupation numbers 
     1.0000   1.0000   1.0000   1.0000   1.0000   1.0000   1.0000   1.0000
     0.0013   0.0013   0.0000   0.0000   0.0000   0.0000   0.0000

          k = 0.1414 0.1414-0.1414 (   800 PWs)   bands (ev):

   -70.0133 -38.7986 -38.7970 -38.7970  -5.7697   3.6206   4.3910   4.3910
     8.5851   8.5851   9.8289  10.6556  10.6556  11.2631  14.4801

     occupation numbers 
     1.0000   1.0000   1.0000   1.0000   1.0000   1.0000   1.0000   1.0000
     0.0017   0.0017   0.0000   0.0000   0.0000   0.0000   0.0000

          k = 0.2828 0.2828-0.2828 (   796 PWs)   bands (ev):

   -70.0132 -38.8012 -38.7975 -38.7975  -5.3839   2.6638   4.4371   4.4371
     8.6999   8.6999   8.8535  10.0354  10.0354  12.0729  15.3572

     occupation numbers 
     1.0000   1.0000   1.0000   1.0000   1.0000   1.0000   1.0000   1.0000
     0.0005   0.0005   0.0001   0.0000   0.0000   0.0000   0.0000

          k = 0.2828 0.0000 0.0000 (   801 PWs)   bands (ev):

   -70.0133 -38.7984 -38.7975 -38.7975  -5.6992   3.5713   4.3410   4.3410
     8.2398   8.7954  10.1815  10.1815  10.2874  11.5676  13.9264

     occupation numbers 
     1.0000   1.0000   1.0000   1.0000   1.0000   1.0000   1.0000   1.0000
     0.0422   0.0001   0.0000   0.0000   0.0000   0.0000   0.0000

          k = 0.4243 0.1414-0.1414 (   797 PWs)   bands (ev):

   -70.0131 -38.8005 -38.7982 -38.7979  -5.3664   2.9602   4.1919   4.3733
     8.1388   8.9225   8.9691   9.6794  10.0096  12.7255  14.3281

     occupation numbers 
     1.0000   1.0000   1.0000   1.0000   1.0000   1.0000   1.0000   1.0000
     0.0845   0.0000   0.0000   0.0000   0.0000   0.0000   0.0000

          k =-0.1414-0.4243 0.4243 (   785 PWs)   bands (ev):

   -70.0130 -38.8011 -38.7986 -38.7977  -5.2261   2.8311   3.8951   4.4515
     8.2462   8.6438   8.8737   9.6035   9.9472  13.1818  14.4217

     occupation numbers 
     1.0000   1.0000   1.0000   1.0000   1.0000   1.0000   1.0000   1.0000
     0.0402   0.0009   0.0000   0.0000   0.0000   0.0000   0.0000

          k = 0.0000-0.2828 0.2828 (   797 PWs)   bands (ev):

   -70.0132 -38.7999 -38.7982 -38.7973  -5.4938   3.1804   4.0805   4.4656
     8.3928   8.7785   9.1598   9.7128  10.5228  12.7564  14.5791

     occupation numbers 
     1.0000   1.0000   1.0000   1.0000   1.0000   1.0000   1.0000   1.0000
     0.0120   0.0002   0.0000   0.0000   0.0000   0.0000   0.0000

          k = 0.5657 0.0000 0.0000 (   789 PWs)   bands (ev):

   -70.0130 -38.8011 -38.7985 -38.7985  -5.1898   2.7195   4.3522   4.3522
     7.7084   9.0262   9.0850   9.3093   9.3093  12.2830  13.9536

     occupation numbers 
     1.0000   1.0000   1.0000   1.0000   1.0000   1.0000   1.0000   1.0000
     0.5460   0.0000   0.0000   0.0000   0.0000   0.0000   0.0000

          k = 0.0000-0.5657 0.5657 (   794 PWs)   bands (ev):

   -70.0130 -38.8012 -38.7993 -38.7986  -5.1014   2.8603   3.8514   4.3897
     7.7105   8.6262   8.8075   9.4627   9.4897  12.8613  14.4774

     occupation numbers 
     1.0000   1.0000   1.0000   1.0000   1.0000   1.0000   1.0000   1.0000
     0.5430   0.0011   0.0001   0.0000   0.0000   0.0000   0.0000

          k =-0.1414-0.4243 0.7071 (   794 PWs)   bands (ev):

   -70.0130 -38.8009 -38.7993 -38.7984  -5.1514   3.0592   3.6958   4.3161
     7.8853   8.4048   9.0219   9.3433   9.8767  13.6727  14.9167

     occupation numbers 
     1.0000   1.0000   1.0000   1.0000   1.0000   1.0000   1.0000   1.0000
     0.3094   0.0108   0.0000   0.0000   0.0000   0.0000   0.0000

     the Fermi energy is     7.7417 ev

!    total energy              =    -352.76359839 Ry
     total all-electron energy =     -3115.622002 Ry
     estimated scf accuracy    <          1.9E-11 Ry
     smearing contrib. (-TS)   =      -0.00639552 Ry
     internal energy E=F+TS    =    -352.75720286 Ry

     The total energy is F=E-TS. E is the sum of the following terms:
     one-electron contribution =    -152.22376707 Ry
     hartree contribution      =      84.58008632 Ry
     xc contribution           =     -33.09470535 Ry
     ewald contribution        =    -128.25534586 Ry
     one-center paw contrib.   =    -123.76347090 Ry
      -> PAW hartree energy AE =     174.94908426 Ry
      -> PAW hartree energy PS =    -175.91691955 Ry
      -> PAW xc energy AE      =    -104.50449808 Ry
      -> PAW xc energy PS      =      27.84505954 Ry
      -> total E_H with PAW    =      83.61225103 Ry
      -> total E_XC with PAW   =    -109.75414388 Ry

     total magnetization       =     4.66 Bohr mag/cell
     absolute magnetization    =     4.66 Bohr mag/cell

     convergence has been achieved in  10 iterations

     Forces acting on atoms (cartesian axes, Ry/au):

     atom    1 type  1   force =     0.00000000   -0.00000000    0.00000000
     atom    2 type  2   force =     0.00000000    0.00000000    0.00000000
     The non-local contrib.  to forces
     atom    1 type  1   force =     0.00000000   -0.00000000    0.00000000
     atom    2 type  2   force =     0.00000000    0.00000000    0.00000000
     The ionic contribution  to forces
     atom    1 type  1   force =    -0.00000000   -0.00000000   -0.00000000
     atom    2 type  2   force =     0.00000000    0.00000000    0.00000000
     The local contribution  to forces
     atom    1 type  1   force =     0.00000000    0.00000000    0.00000000
     atom    2 type  2   force =    -0.00000000   -0.00000000    0.00000000
     The core correction contribution to forces
     atom    1 type  1   force =     0.00000000    0.00000000    0.00000000
     atom    2 type  2   force =    -0.00000000   -0.00000000   -0.00000000
     The Hubbard contrib.    to forces
     atom    1 type  1   force =     0.00000000    0.00000000    0.00000000
     atom    2 type  2   force =     0.00000000    0.00000000    0.00000000
     The SCF correction term to forces
     atom    1 type  1   force =     0.00000000    0.00000000   -0.00000000
     atom    2 type  2   force =    -0.00000000   -0.00000000    0.00000000

     Total force =     0.000000     Total SCF correction =     0.000000


     Computing stress (Cartesian axis) and pressure

          total   stress  (Ry/bohr**3)                   (kbar)     P=     -359.64
  -0.00244478   0.00000000   0.00000000         -359.64        0.00        0.00
  -0.00000000  -0.00244478   0.00000000           -0.00     -359.64        0.00
   0.00000000   0.00000000  -0.00244478            0.00        0.00     -359.64

     kinetic stress (kbar)  15504.68      0.00     -0.00
                                0.00  15504.68      0.00
                               -0.00      0.00  15504.68

     local   stress (kbar)  -2394.18      0.00      0.00
                                0.00  -2394.18      0.00
                                0.00      0.00  -2394.18

     nonloc. stress (kbar)   -912.67     -0.00      0.00
                               -0.00   -912.67      0.00
                                0.00      0.00   -912.67

     hartree stress (kbar)  14513.66     -0.00     -0.00
                               -0.00  14513.66     -0.00
                               -0.00     -0.00  14513.66

     exc-cor stress (kbar)  -2385.46     -0.00      0.00
                               -0.00  -2385.46      0.00
                                0.00      0.00  -2385.46

     corecor stress (kbar)  -2677.49      0.00      0.00
                                0.00  -2677.49      0.00
                                0.00      0.00  -2677.49

     ewald   stress (kbar) -22008.19      0.00      0.00
                                0.00 -22008.19     -0.00
                                0.00     -0.00 -22008.19

     hubbard stress (kbar)      0.00      0.00      0.00
                                0.00      0.00      0.00
                                0.00      0.00      0.00

     DFT-D   stress (kbar)      0.00      0.00      0.00
                                0.00      0.00      0.00
                                0.00      0.00      0.00

     XDM     stress (kbar)      0.00      0.00      0.00
                                0.00      0.00      0.00
                                0.00      0.00      0.00

     dft-nl  stress (kbar)      0.00      0.00      0.00
                                0.00      0.00      0.00
                                0.00      0.00      0.00

     TS-vdW  stress (kbar)      0.00      0.00      0.00
                                0.00      0.00      0.00
                                0.00      0.00      0.00

     MDB     stress (kbar)      0.00      0.00      0.00
                                0.00      0.00      0.00
                                0.00      0.00      0.00

     3D-RISM stress (kbar)      0.00      0.00      0.00
                                0.00      0.00      0.00
                                0.00      0.00      0.00


     BFGS Geometry Optimization
     Energy error            =      0.0E+00 Ry
     Gradient error          =      1.5E-30 Ry/Bohr
     Cell gradient error     =      3.6E+02 kbar

     number of scf cycles    =   1
     number of bfgs steps    =   0

     enthalpy           new  =    -352.7635983851 Ry

     new trust radius        =       0.2066373345 bohr
ibrav =     -5
 celldm(1) =      6.94141145
 celldm(4) =      0.50000000
Input lattice vectors:
     0.00000000     0.66388874     0.66388874
     0.66388874    -0.00000000     0.66388874
     0.66388874     0.66388874     0.00000000
New lattice vectors in INITIAL alat:
     0.00000000     0.66388874     0.66388874
     0.66388874     0.00000000     0.66388874
     0.66388874     0.66388874     0.00000000
New lattice vectors in NEW alat (for information only):
     0.00000000     0.70710678     0.70710678
     0.70710678     0.00000000     0.70710678
     0.70710678     0.70710678     0.00000000
Discrepancy in bohr =     0.000000    0.000000    0.000000
     new conv_thr            =            1.0E-10 Ry

     new unit-cell volume =    236.49849 a.u.^3 (    35.04546 Ang^3 )
     density =      4.12241 g/cm^3

CELL_PARAMETERS (alat=  7.39328566)
   0.000000000   0.663888741   0.663888741
   0.663888741   0.000000000   0.663888741
   0.663888741   0.663888741   0.000000000

ATOMIC_POSITIONS (crystal)
Mn               0.7500000000        0.7500000000        0.7500000000
S                0.0000000000       -0.0000000000        0.0000000000



     Writing config-only to output data dir ./temp/mns.save/ :
     XML data file
     NEW-OLD atomic charge density approx. for the potential

     Check: negative core charge=   -0.000081
     Generating pointlists ...
     new r_m :   0.2372 (alat units)  1.7534 (a.u.) for type    1
     new r_m :   0.2372 (alat units)  1.7534 (a.u.) for type    2

     total cpu time spent up to now is        5.9 secs

     Self-consistent Calculation

     iteration #  1     ecut=    30.00 Ry     beta= 0.70
     Davidson diagonalization with overlap

---- Real-time Memory Report at c_bands before calling an iterative solver
            59 MiB given to the printing process from OS
             0 MiB allocation reported by mallinfo(arena+hblkhd)
           381 MiB available memory on the node where the printing process lives
------------------
     c_bands:  1 eigenvalues not converged
     c_bands:  1 eigenvalues not converged
     ethr =  1.00E-06,  avg # of iterations = 10.6

     total cpu time spent up to now is        6.6 secs

     total energy              =    -352.63469677 Ry
     estimated scf accuracy    <       0.18665947 Ry

     total magnetization       =     4.21 Bohr mag/cell
     absolute magnetization    =     4.21 Bohr mag/cell

     iteration #  2     ecut=    30.00 Ry     beta= 0.70
     Davidson diagonalization with overlap

---- Real-time Memory Report at c_bands before calling an iterative solver
            59 MiB given to the printing process from OS
             0 MiB allocation reported by mallinfo(arena+hblkhd)
           379 MiB available memory on the node where the printing process lives
------------------
     ethr =  8.89E-04,  avg # of iterations =  4.5

     total cpu time spent up to now is        7.1 secs

     total energy              =    -352.67555017 Ry
     estimated scf accuracy    <       1.22368260 Ry

     total magnetization       =     3.61 Bohr mag/cell
     absolute magnetization    =     3.62 Bohr mag/cell

     iteration #  3     ecut=    30.00 Ry     beta= 0.70
     Davidson diagonalization with overlap

---- Real-time Memory Report at c_bands before calling an iterative solver
            59 MiB given to the printing process from OS
             0 MiB allocation reported by mallinfo(arena+hblkhd)
           379 MiB available memory on the node where the printing process lives
------------------
     ethr =  8.89E-04,  avg # of iterations =  3.4

     total cpu time spent up to now is        7.6 secs

     total energy              =    -352.82786192 Ry
     estimated scf accuracy    <       0.03007976 Ry

     total magnetization       =     3.98 Bohr mag/cell
     absolute magnetization    =     3.98 Bohr mag/cell

     iteration #  4     ecut=    30.00 Ry     beta= 0.70
     Davidson diagonalization with overlap

---- Real-time Memory Report at c_bands before calling an iterative solver
            59 MiB given to the printing process from OS
             0 MiB allocation reported by mallinfo(arena+hblkhd)
           380 MiB available memory on the node where the printing process lives
------------------
     ethr =  1.43E-04,  avg # of iterations =  1.9

     total cpu time spent up to now is        8.0 secs

     total energy              =    -352.83315086 Ry
     estimated scf accuracy    <       0.01233307 Ry

     total magnetization       =     3.93 Bohr mag/cell
     absolute magnetization    =     3.93 Bohr mag/cell

     iteration #  5     ecut=    30.00 Ry     beta= 0.70
     Davidson diagonalization with overlap

---- Real-time Memory Report at c_bands before calling an iterative solver
            59 MiB given to the printing process from OS
             0 MiB allocation reported by mallinfo(arena+hblkhd)
           379 MiB available memory on the node where the printing process lives
------------------
     ethr =  5.87E-05,  avg # of iterations =  2.0

     total cpu time spent up to now is        8.4 secs

     total energy              =    -352.83458746 Ry
     estimated scf accuracy    <       0.00037112 Ry

     total magnetization       =     3.78 Bohr mag/cell
     absolute magnetization    =     3.78 Bohr mag/cell

     iteration #  6     ecut=    30.00 Ry     beta= 0.70
     Davidson diagonalization with overlap

---- Real-time Memory Report at c_bands before calling an iterative solver
            59 MiB given to the printing process from OS
             0 MiB allocation reported by mallinfo(arena+hblkhd)
           378 MiB available memory on the node where the printing process lives
------------------
     ethr =  1.77E-06,  avg # of iterations =  5.0

     total cpu time spent up to now is        8.9 secs

     total energy              =    -352.83552941 Ry
     estimated scf accuracy    <       0.00130600 Ry

     total magnetization       =     3.66 Bohr mag/cell
     absolute magnetization    =     3.66 Bohr mag/cell

     iteration #  7     ecut=    30.00 Ry     beta= 0.70
     Davidson diagonalization with overlap

---- Real-time Memory Report at c_bands before calling an iterative solver
            59 MiB given to the printing process from OS
             0 MiB allocation reported by mallinfo(arena+hblkhd)
           377 MiB available memory on the node where the printing process lives
------------------
     ethr =  1.77E-06,  avg # of iterations =  1.6

     total cpu time spent up to now is        9.2 secs

     total energy              =    -352.83588401 Ry
     estimated scf accuracy    <       0.00047576 Ry

     total magnetization       =     3.58 Bohr mag/cell
     absolute magnetization    =     3.58 Bohr mag/cell

     iteration #  8     ecut=    30.00 Ry     beta= 0.70
     Davidson diagonalization with overlap

---- Real-time Memory Report at c_bands before calling an iterative solver
            59 MiB given to the printing process from OS
             0 MiB allocation reported by mallinfo(arena+hblkhd)
           377 MiB available memory on the node where the printing process lives
------------------
     ethr =  1.77E-06,  avg # of iterations =  2.0

     total cpu time spent up to now is        9.6 secs

     total energy              =    -352.83598377 Ry
     estimated scf accuracy    <       0.00000309 Ry

     total magnetization       =     3.63 Bohr mag/cell
     absolute magnetization    =     3.63 Bohr mag/cell

     iteration #  9     ecut=    30.00 Ry     beta= 0.70
     Davidson diagonalization with overlap

---- Real-time Memory Report at c_bands before calling an iterative solver
            59 MiB given to the printing process from OS
             0 MiB allocation reported by mallinfo(arena+hblkhd)
           376 MiB available memory on the node where the printing process lives
------------------
     ethr =  1.47E-08,  avg # of iterations =  5.0

     total cpu time spent up to now is       10.1 secs

     total energy              =    -352.83599043 Ry
     estimated scf accuracy    <       0.00000116 Ry

     total magnetization       =     3.62 Bohr mag/cell
     absolute magnetization    =     3.62 Bohr mag/cell

     iteration # 10     ecut=    30.00 Ry     beta= 0.70
     Davidson diagonalization with overlap

---- Real-time Memory Report at c_bands before calling an iterative solver
            59 MiB given to the printing process from OS
             0 MiB allocation reported by mallinfo(arena+hblkhd)
           375 MiB available memory on the node where the printing process lives
------------------
     ethr =  5.52E-09,  avg # of iterations =  1.1

     total cpu time spent up to now is       10.5 secs

     total energy              =    -352.83599069 Ry
     estimated scf accuracy    <       0.00000044 Ry

     total magnetization       =     3.62 Bohr mag/cell
     absolute magnetization    =     3.62 Bohr mag/cell

     iteration # 11     ecut=    30.00 Ry     beta= 0.70
     Davidson diagonalization with overlap

---- Real-time Memory Report at c_bands before calling an iterative solver
            59 MiB given to the printing process from OS
             0 MiB allocation reported by mallinfo(arena+hblkhd)
           374 MiB available memory on the node where the printing process lives
------------------
     ethr =  2.09E-09,  avg # of iterations =  1.9

     total cpu time spent up to now is       10.9 secs

     total energy              =    -352.83599078 Ry
     estimated scf accuracy    <          9.6E-09 Ry

     total magnetization       =     3.62 Bohr mag/cell
     absolute magnetization    =     3.62 Bohr mag/cell

     iteration # 12     ecut=    30.00 Ry     beta= 0.70
     Davidson diagonalization with overlap

---- Real-time Memory Report at c_bands before calling an iterative solver
            59 MiB given to the printing process from OS
             0 MiB allocation reported by mallinfo(arena+hblkhd)
           374 MiB available memory on the node where the printing process lives
------------------
     ethr =  4.57E-11,  avg # of iterations =  4.3

     total cpu time spent up to now is       11.3 secs

     total energy              =    -352.83599080 Ry
     estimated scf accuracy    <          9.2E-10 Ry

     total magnetization       =     3.62 Bohr mag/cell
     absolute magnetization    =     3.62 Bohr mag/cell

     iteration # 13     ecut=    30.00 Ry     beta= 0.70
     Davidson diagonalization with overlap

---- Real-time Memory Report at c_bands before calling an iterative solver
            59 MiB given to the printing process from OS
             0 MiB allocation reported by mallinfo(arena+hblkhd)
           375 MiB available memory on the node where the printing process lives
------------------
     ethr =  4.38E-12,  avg # of iterations =  2.2

     Magnetic moment per site  (integrated on atomic sphere of radius R)
     atom   1 (R=0.237)  charge= 12.7501  magn=  3.1042
     atom   2 (R=0.237)  charge=  3.7656  magn=  0.0225

     total cpu time spent up to now is       11.7 secs

     End of self-consistent calculation

 ------ SPIN UP ------------


          k = 0.0000 0.0000 0.0000 (   821 PWs)   bands (ev):

   -71.2675 -40.0261 -40.0261 -40.0261  -4.9552   4.7867   4.7867   4.7867
     7.3124   7.3124  11.6123  11.6123  11.6123  12.3452  16.5693

     occupation numbers 
     1.0000   1.0000   1.0000   1.0000   1.0000   1.0000   1.0000   1.0000
     1.0000   1.0000   0.0000   0.0000   0.0000   0.0000   0.0000

          k = 0.1506 0.1506-0.1506 (   800 PWs)   bands (ev):

   -71.2671 -40.0297 -40.0263 -40.0263  -4.6387   4.2964   4.8999   4.8999
     7.3034   7.3034   9.8925  11.1447  11.1447  13.6793  16.6257

     occupation numbers 
     1.0000   1.0000   1.0000   1.0000   1.0000   1.0000   1.0000   1.0000
     1.0000   1.0000   0.6255   0.0000   0.0000   0.0000   0.0000

          k = 0.3013 0.3013-0.3013 (   796 PWs)   bands (ev):

   -71.2667 -40.0353 -40.0274 -40.0274  -4.0514   3.5691   5.0293   5.0293
     7.4572   7.4572   8.1626  10.3362  10.3362  14.1446  17.2004

     occupation numbers 
     1.0000   1.0000   1.0000   1.0000   1.0000   1.0000   1.0000   1.0000
     1.0000   1.0000   1.0000   0.1117   0.1117   0.0000   0.0000

          k = 0.3013 0.0000 0.0000 (   801 PWs)   bands (ev):

   -71.2670 -40.0294 -40.0272 -40.0272  -4.5338   4.1716   4.9668   4.9668
     7.0835   7.4518  10.4209  10.4209  10.4229  13.9831  15.7606

     occupation numbers 
     1.0000   1.0000   1.0000   1.0000   1.0000   1.0000   1.0000   1.0000
     1.0000   1.0000   0.0654   0.0654   0.0645   0.0000   0.0000

          k = 0.4519 0.1506-0.1506 (   797 PWs)   bands (ev):

   -71.2667 -40.0338 -40.0288 -40.0282  -4.0282   3.7477   4.9745   5.1440
     7.1439   7.5757   8.4845   9.6636   9.8734  14.7160  16.3914

     occupation numbers 
     1.0000   1.0000   1.0000   1.0000   1.0000   1.0000   1.0000   1.0000
     1.0000   1.0000   1.0000   0.8672   0.6502   0.0000   0.0000

          k =-0.1506-0.4519 0.4519 (   785 PWs)   bands (ev):

   -71.2664 -40.0349 -40.0298 -40.0280  -3.8093   3.7978   4.6815   5.1880
     7.3551   7.4289   7.9965   9.1661   9.8864  15.1021  16.5384

     occupation numbers 
     1.0000   1.0000   1.0000   1.0000   1.0000   1.0000   1.0000   1.0000
     1.0000   1.0000   1.0000   0.9977   0.6335   0.0000   0.0000

          k = 0.0000-0.3013 0.3013 (   797 PWs)   bands (ev):

   -71.2668 -40.0324 -40.0288 -40.0269  -4.2235   3.9844   4.8060   5.0530
     7.1936   7.5072   9.0534   9.4179  10.8191  15.2998  16.5275

     occupation numbers 
     1.0000   1.0000   1.0000   1.0000   1.0000   1.0000   1.0000   1.0000
     1.0000   1.0000   0.9994   0.9753   0.0019   0.0000   0.0000

          k = 0.6025 0.0000 0.0000 (   789 PWs)   bands (ev):

   -71.2664 -40.0350 -40.0295 -40.0295  -3.7539   3.4003   5.4172   5.4172
     6.9881   7.6778   8.5341   8.8225   8.8225  13.7652  15.4280

     occupation numbers 
     1.0000   1.0000   1.0000   1.0000   1.0000   1.0000   1.0000   1.0000
     1.0000   1.0000   1.0000   1.0000   1.0000   0.0000   0.0000

          k = 0.0000-0.6025 0.6025 (   794 PWs)   bands (ev):

   -71.2664 -40.0351 -40.0312 -40.0296  -3.6153   3.6056   5.0766   5.4291
     7.0107   7.5687   7.8453   8.6668   8.9456  14.3436  16.3225

     occupation numbers 
     1.0000   1.0000   1.0000   1.0000   1.0000   1.0000   1.0000   1.0000
     1.0000   1.0000   1.0000   1.0000   0.9998   0.0000   0.0000

          k =-0.1506-0.4519 0.7531 (   794 PWs)   bands (ev):

   -71.2664 -40.0344 -40.0312 -40.0293  -3.6949   3.8996   4.6439   5.3904
     7.1774   7.3902   8.0100   8.5501   9.4081  15.5062  16.9441

     occupation numbers 
     1.0000   1.0000   1.0000   1.0000   1.0000   1.0000   1.0000   1.0000
     1.0000   1.0000   1.0000   1.0000   0.9772   0.0000   0.0000

 ------ SPIN DOWN ----------


          k = 0.0000 0.0000 0.0000 (   821 PWs)   bands (ev):

   -67.6912 -36.5155 -36.5155 -36.5155  -4.7647   5.8761   5.8761   5.8761
    10.5181  10.5181  12.8175  13.6075  13.6075  13.6075  17.3599

     occupation numbers 
     1.0000   1.0000   1.0000   1.0000   1.0000   1.0000   1.0000   1.0000
     0.0323   0.0323   0.0000   0.0000   0.0000   0.0000   0.0000

          k = 0.1506 0.1506-0.1506 (   800 PWs)   bands (ev):

   -67.6907 -36.5203 -36.5159 -36.5159  -4.4588   5.0953   5.9548   5.9548
    10.4366  10.4366  12.1870  13.2455  13.2455  14.2386  17.2007

     occupation numbers 
     1.0000   1.0000   1.0000   1.0000   1.0000   1.0000   1.0000   1.0000
     0.0587   0.0587   0.0000   0.0000   0.0000   0.0000   0.0000

          k = 0.3013 0.3013-0.3013 (   796 PWs)   bands (ev):

   -67.6903 -36.5279 -36.5173 -36.5173  -3.8922   4.0071   6.0520   6.0520
    10.5991  10.5991  10.7666  12.3989  12.3989  14.9011  18.1288

     occupation numbers 
     1.0000   1.0000   1.0000   1.0000   1.0000   1.0000   1.0000   1.0000
     0.0167   0.0167   0.0034   0.0000   0.0000   0.0000   0.0000

          k = 0.3013 0.0000 0.0000 (   801 PWs)   bands (ev):

   -67.6907 -36.5201 -36.5171 -36.5171  -4.3576   5.0272   5.9284   5.9284
     9.9710  10.7369  12.5648  12.5648  12.9151  14.3935  16.6588

     occupation numbers 
     1.0000   1.0000   1.0000   1.0000   1.0000   1.0000   1.0000   1.0000
     0.5191   0.0046   0.0000   0.0000   0.0000   0.0000   0.0000

          k = 0.4519 0.1506-0.1506 (   797 PWs)   bands (ev):

   -67.6903 -36.5258 -36.5191 -36.5184  -3.8702   4.3452   5.8014   6.0225
     9.8394  10.8660  10.9233  11.9057  12.4435  15.5585  17.1900

     occupation numbers 
     1.0000   1.0000   1.0000   1.0000   1.0000   1.0000   1.0000   1.0000
     0.6929   0.0011   0.0006   0.0000   0.0000   0.0000   0.0000

          k =-0.1506-0.4519 0.4519 (   785 PWs)   bands (ev):

   -67.6900 -36.5275 -36.5206 -36.5181  -3.6592   4.2123   5.4506   6.1122
     9.9430  10.4793  10.8052  11.8049  12.2531  15.9042  17.3948

     occupation numbers 
     1.0000   1.0000   1.0000   1.0000   1.0000   1.0000   1.0000   1.0000
     0.5576   0.0434   0.0022   0.0000   0.0000   0.0000   0.0000

          k = 0.0000-0.3013 0.3013 (   797 PWs)   bands (ev):

   -67.6904 -36.5240 -36.5191 -36.5167  -4.0581   4.6088   5.6469   6.0830
    10.1714  10.6698  11.2124  11.9968  13.0998  15.9304  17.1358

     occupation numbers 
     1.0000   1.0000   1.0000   1.0000   1.0000   1.0000   1.0000   1.0000
     0.2590   0.0088   0.0000   0.0000   0.0000   0.0000   0.0000

          k = 0.6025 0.0000 0.0000 (   789 PWs)   bands (ev):

   -67.6900 -36.5276 -36.5201 -36.5201  -3.6071   4.0439   6.0675   6.0675
     9.2436  11.1127  11.1155  11.2905  11.2905  15.0283  16.7086

     occupation numbers 
     1.0000   1.0000   1.0000   1.0000   1.0000   1.0000   1.0000   1.0000
     0.9949   0.0000   0.0000   0.0000   0.0000   0.0000   0.0000

          k = 0.0000-0.6025 0.6025 (   794 PWs)   bands (ev):

   -67.6899 -36.5277 -36.5223 -36.5202  -3.4733   4.2174   5.4810   6.1152
     9.2278  10.5115  10.7030  11.6028  11.6475  15.5909  17.3394

     occupation numbers 
     1.0000   1.0000   1.0000   1.0000   1.0000   1.0000   1.0000   1.0000
     0.9956   0.0340   0.0064   0.0000   0.0000   0.0000   0.0000

          k =-0.1506-0.4519 0.7531 (   794 PWs)   bands (ev):

   -67.6900 -36.5268 -36.5223 -36.5198  -3.5493   4.4674   5.2530   6.0167
     9.4613  10.1822  11.0450  11.4413  12.1894  16.4238  17.6587

     occupation numbers 
     1.0000   1.0000   1.0000   1.0000   1.0000   1.0000   1.0000   1.0000
     0.9652   0.2471   0.0001   0.0000   0.0000   0.0000   0.0000

     the Fermi energy is     9.9848 ev

!    total energy              =    -352.83599080 Ry
     total all-electron energy =     -3115.694394 Ry
     estimated scf accuracy    <          8.6E-11 Ry
     smearing contrib. (-TS)   =      -0.01261657 Ry
     internal energy E=F+TS    =    -352.82337422 Ry

     The total energy is F=E-TS. E is the sum of the following terms:
     one-electron contribution =    -139.16147650 Ry
     hartree contribution      =      79.96628120 Ry
     xc contribution           =     -33.17431230 Ry
     ewald contribution        =    -136.60455302 Ry
     one-center paw contrib.   =    -123.84931360 Ry
      -> PAW hartree energy AE =     170.36579668 Ry
      -> PAW hartree energy PS =    -171.41858376 Ry
      -> PAW xc energy AE      =    -104.10734904 Ry
      -> PAW xc energy PS      =      27.44927496 Ry
      -> total E_H with PAW    =      78.91349412 Ry
      -> total E_XC with PAW   =    -109.83238639 Ry

     total magnetization       =     3.62 Bohr mag/cell
     absolute magnetization    =     3.62 Bohr mag/cell

     convergence has been achieved in  13 iterations

     Forces acting on atoms (cartesian axes, Ry/au):

     atom    1 type  1   force =     0.00000000    0.00000000    0.00000000
     atom    2 type  2   force =     0.00000000    0.00000000    0.00000000
     The non-local contrib.  to forces
     atom    1 type  1   force =    -0.00000000    0.00000000    0.00000000
     atom    2 type  2   force =    -0.00000000   -0.00000000    0.00000000
     The ionic contribution  to forces
     atom    1 type  1   force =    -0.00000000   -0.00000000   -0.00000000
     atom    2 type  2   force =    -0.00000000    0.00000000    0.00000000
     The local contribution  to forces
     atom    1 type  1   force =     0.00000000    0.00000000    0.00000000
     atom    2 type  2   force =    -0.00000000   -0.00000000   -0.00000000
     The core correction contribution to forces
     atom    1 type  1   force =     0.00000000    0.00000000    0.00000000
     atom    2 type  2   force =     0.00000000    0.00000000    0.00000000
     The Hubbard contrib.    to forces
     atom    1 type  1   force =     0.00000000    0.00000000    0.00000000
     atom    2 type  2   force =     0.00000000    0.00000000    0.00000000
     The SCF correction term to forces
     atom    1 type  1   force =    -0.00000000    0.00000000    0.00000000
     atom    2 type  2   force =     0.00000000    0.00000000    0.00000000

     Total force =     0.000000     Total SCF correction =     0.000000


     Computing stress (Cartesian axis) and pressure

          total   stress  (Ry/bohr**3)                   (kbar)     P=      -77.71
  -0.00052828   0.00000000   0.00000000          -77.71        0.00        0.00
   0.00000000  -0.00052828   0.00000000            0.00      -77.71        0.00
   0.00000000   0.00000000  -0.00052828            0.00        0.00      -77.71

     kinetic stress (kbar)  18760.39      0.00      0.00
                                0.00  18760.39     -0.00
                                0.00     -0.00  18760.39

     local   stress (kbar)    -72.36     -0.00      0.00
                               -0.00    -72.36     -0.00
                                0.00     -0.00    -72.36

     nonloc. stress (kbar)   -831.58      0.00     -0.00
                               -0.00   -831.58     -0.00
                               -0.00     -0.00   -831.58

     hartree stress (kbar)  16580.02     -0.00      0.00
                               -0.00  16580.02     -0.00
                                0.00     -0.00  16580.02

     exc-cor stress (kbar)  -2889.68     -0.00      0.00
                               -0.00  -2889.68      0.00
                                0.00      0.00  -2889.68

     corecor stress (kbar)  -3301.24     -0.00      0.00
                               -0.00  -3301.24      0.00
                                0.00      0.00  -3301.24

     ewald   stress (kbar) -28323.26     -0.00      0.00
                               -0.00 -28323.26      0.00
                                0.00      0.00 -28323.26

     hubbard stress (kbar)      0.00      0.00      0.00
                                0.00      0.00      0.00
                                0.00      0.00      0.00

     DFT-D   stress (kbar)      0.00      0.00      0.00
                                0.00      0.00      0.00
                                0.00      0.00      0.00

     XDM     stress (kbar)      0.00      0.00      0.00
                                0.00      0.00      0.00
                                0.00      0.00      0.00

     dft-nl  stress (kbar)      0.00      0.00      0.00
                                0.00      0.00      0.00
                                0.00      0.00      0.00

     TS-vdW  stress (kbar)      0.00      0.00      0.00
                                0.00      0.00      0.00
                                0.00      0.00      0.00

     MDB     stress (kbar)      0.00      0.00      0.00
                                0.00      0.00      0.00
                                0.00      0.00      0.00

     3D-RISM stress (kbar)      0.00      0.00      0.00
                                0.00      0.00      0.00
                                0.00      0.00      0.00

     Energy error            =      7.2E-02 Ry
     Gradient error          =      0.0E+00 Ry/Bohr
     Cell gradient error     =      7.8E+01 kbar

     number of scf cycles    =   2
     number of bfgs steps    =   1

     enthalpy           old  =    -352.7635983851 Ry
     enthalpy           new  =    -352.8359907984 Ry

     CASE: enthalpy          _new < enthalpy          _old

     new trust radius        =       0.0471119575 bohr
ibrav =     -5
 celldm(1) =      6.83508661
 celldm(4) =      0.50000000
Input lattice vectors:
    -0.00000000     0.65371965     0.65371965
     0.65371965     0.00000000     0.65371965
     0.65371965     0.65371965    -0.00000000
New lattice vectors in INITIAL alat:
     0.00000000     0.65371965     0.65371965
     0.65371965     0.00000000     0.65371965
     0.65371965     0.65371965     0.00000000
New lattice vectors in NEW alat (for information only):
     0.00000000     0.70710678     0.70710678
     0.70710678     0.00000000     0.70710678
     0.70710678     0.70710678     0.00000000
Discrepancy in bohr =     0.000000    0.000000    0.000000
     new conv_thr            =            1.0E-12 Ry

     new unit-cell volume =    225.79643 a.u.^3 (    33.45958 Ang^3 )
     density =      4.31780 g/cm^3

CELL_PARAMETERS (alat=  7.39328566)
   0.000000000   0.653719647   0.653719647
   0.653719647   0.000000000   0.653719647
   0.653719647   0.653719647   0.000000000

ATOMIC_POSITIONS (crystal)
Mn               0.7500000000        0.7500000000        0.7500000000
S                0.0000000000       -0.0000000000        0.0000000000



     Writing config-only to output data dir ./temp/mns.save/ :
     XML data file
     NEW-OLD atomic charge density approx. for the potential

     Check: negative core charge=   -0.000085
     Generating pointlists ...
     new r_m :   0.2335 (alat units)  1.7266 (a.u.) for type    1
     new r_m :   0.2335 (alat units)  1.7266 (a.u.) for type    2

     total cpu time spent up to now is       12.4 secs

     Self-consistent Calculation

     iteration #  1     ecut=    30.00 Ry     beta= 0.70
     Davidson diagonalization with overlap

---- Real-time Memory Report at c_bands before calling an iterative solver
            59 MiB given to the printing process from OS
             0 MiB allocation reported by mallinfo(arena+hblkhd)
           389 MiB available memory on the node where the printing process lives
------------------
     ethr =  1.00E-06,  avg # of iterations =  7.0

     total cpu time spent up to now is       13.0 secs

     total energy              =    -352.83028502 Ry
     estimated scf accuracy    <       0.00747372 Ry

     total magnetization       =     3.47 Bohr mag/cell
     absolute magnetization    =     3.47 Bohr mag/cell

     iteration #  2     ecut=    30.00 Ry     beta= 0.70
     Davidson diagonalization with overlap

---- Real-time Memory Report at c_bands before calling an iterative solver
            59 MiB given to the printing process from OS
             0 MiB allocation reported by mallinfo(arena+hblkhd)
           387 MiB available memory on the node where the printing process lives
------------------
     ethr =  3.56E-05,  avg # of iterations =  4.5

     total cpu time spent up to now is       13.5 secs

     total energy              =    -352.83179410 Ry
     estimated scf accuracy    <       0.05976275 Ry

     total magnetization       =     3.40 Bohr mag/cell
     absolute magnetization    =     3.41 Bohr mag/cell

     iteration #  3     ecut=    30.00 Ry     beta= 0.70
     Davidson diagonalization with overlap

---- Real-time Memory Report at c_bands before calling an iterative solver
            59 MiB given to the printing process from OS
             0 MiB allocation reported by mallinfo(arena+hblkhd)
           386 MiB available memory on the node where the printing process lives
------------------
     ethr =  3.56E-05,  avg # of iterations =  3.5

     total cpu time spent up to now is       13.9 secs

     total energy              =    -352.83886488 Ry
     estimated scf accuracy    <       0.00201083 Ry

     total magnetization       =     3.35 Bohr mag/cell
     absolute magnetization    =     3.36 Bohr mag/cell

     iteration #  4     ecut=    30.00 Ry     beta= 0.70
     Davidson diagonalization with overlap

---- Real-time Memory Report at c_bands before calling an iterative solver
            59 MiB given to the printing process from OS
             0 MiB allocation reported by mallinfo(arena+hblkhd)
           387 MiB available memory on the node where the printing process lives
------------------
     ethr =  9.58E-06,  avg # of iterations =  1.1

     total cpu time spent up to now is       14.3 secs

     total energy              =    -352.83939070 Ry
     estimated scf accuracy    <       0.00117615 Ry

     total magnetization       =     3.32 Bohr mag/cell
     absolute magnetization    =     3.33 Bohr mag/cell

     iteration #  5     ecut=    30.00 Ry     beta= 0.70
     Davidson diagonalization with overlap

---- Real-time Memory Report at c_bands before calling an iterative solver
            59 MiB given to the printing process from OS
             0 MiB allocation reported by mallinfo(arena+hblkhd)
           387 MiB available memory on the node where the printing process lives
------------------
     ethr =  5.60E-06,  avg # of iterations =  1.8

     total cpu time spent up to now is       14.7 secs

     total energy              =    -352.83908496 Ry
     estimated scf accuracy    <       0.00016741 Ry

     total magnetization       =     3.16 Bohr mag/cell
     absolute magnetization    =     3.19 Bohr mag/cell

     iteration #  6     ecut=    30.00 Ry     beta= 0.70
     Davidson diagonalization with overlap

---- Real-time Memory Report at c_bands before calling an iterative solver
            59 MiB given to the printing process from OS
             0 MiB allocation reported by mallinfo(arena+hblkhd)
           387 MiB available memory on the node where the printing process lives
------------------
     ethr =  7.97E-07,  avg # of iterations =  3.2

     total cpu time spent up to now is       15.2 secs

     total energy              =    -352.84003227 Ry
     estimated scf accuracy    <       0.00056699 Ry

     total magnetization       =     2.96 Bohr mag/cell
     absolute magnetization    =     3.00 Bohr mag/cell

     iteration #  7     ecut=    30.00 Ry     beta= 0.70
     Davidson diagonalization with overlap

---- Real-time Memory Report at c_bands before calling an iterative solver
            59 MiB given to the printing process from OS
             0 MiB allocation reported by mallinfo(arena+hblkhd)
           385 MiB available memory on the node where the printing process lives
------------------
     ethr =  7.97E-07,  avg # of iterations =  2.1

     total cpu time spent up to now is       15.6 secs

     total energy              =    -352.84021874 Ry
     estimated scf accuracy    <       0.00011653 Ry

     total magnetization       =     2.86 Bohr mag/cell
     absolute magnetization    =     2.91 Bohr mag/cell

     iteration #  8     ecut=    30.00 Ry     beta= 0.70
     Davidson diagonalization with overlap

---- Real-time Memory Report at c_bands before calling an iterative solver
            59 MiB given to the printing process from OS
             0 MiB allocation reported by mallinfo(arena+hblkhd)
           385 MiB available memory on the node where the printing process lives
------------------
     ethr =  5.55E-07,  avg # of iterations =  1.4

     total cpu time spent up to now is       16.0 secs

     total energy              =    -352.84027799 Ry
     estimated scf accuracy    <       0.00000314 Ry

     total magnetization       =     2.92 Bohr mag/cell
     absolute magnetization    =     2.96 Bohr mag/cell

     iteration #  9     ecut=    30.00 Ry     beta= 0.70
     Davidson diagonalization with overlap

---- Real-time Memory Report at c_bands before calling an iterative solver
            59 MiB given to the printing process from OS
             0 MiB allocation reported by mallinfo(arena+hblkhd)
           385 MiB available memory on the node where the printing process lives
------------------
     ethr =  1.50E-08,  avg # of iterations =  4.2

     total cpu time spent up to now is       16.4 secs

     total energy              =    -352.84027954 Ry
     estimated scf accuracy    <       0.00000084 Ry

     total magnetization       =     2.92 Bohr mag/cell
     absolute magnetization    =     2.96 Bohr mag/cell

     iteration # 10     ecut=    30.00 Ry     beta= 0.70
     Davidson diagonalization with overlap

---- Real-time Memory Report at c_bands before calling an iterative solver
            59 MiB given to the printing process from OS
             0 MiB allocation reported by mallinfo(arena+hblkhd)
           384 MiB available memory on the node where the printing process lives
------------------
     ethr =  4.01E-09,  avg # of iterations =  1.4

     total cpu time spent up to now is       16.8 secs

     total energy              =    -352.84027982 Ry
     estimated scf accuracy    <       0.00000034 Ry

     total magnetization       =     2.92 Bohr mag/cell
     absolute magnetization    =     2.96 Bohr mag/cell

     iteration # 11     ecut=    30.00 Ry     beta= 0.70
     Davidson diagonalization with overlap

---- Real-time Memory Report at c_bands before calling an iterative solver
            59 MiB given to the printing process from OS
             0 MiB allocation reported by mallinfo(arena+hblkhd)
           384 MiB available memory on the node where the printing process lives
------------------
     ethr =  1.60E-09,  avg # of iterations =  2.1

     total cpu time spent up to now is       17.2 secs

     total energy              =    -352.84027987 Ry
     estimated scf accuracy    <          6.6E-09 Ry

     total magnetization       =     2.92 Bohr mag/cell
     absolute magnetization    =     2.96 Bohr mag/cell

     iteration # 12     ecut=    30.00 Ry     beta= 0.70
     Davidson diagonalization with overlap

---- Real-time Memory Report at c_bands before calling an iterative solver
            59 MiB given to the printing process from OS
             0 MiB allocation reported by mallinfo(arena+hblkhd)
           386 MiB available memory on the node where the printing process lives
------------------
     ethr =  3.13E-11,  avg # of iterations =  4.2

     total cpu time spent up to now is       17.6 secs

     total energy              =    -352.84027988 Ry
     estimated scf accuracy    <          5.7E-10 Ry

     total magnetization       =     2.92 Bohr mag/cell
     absolute magnetization    =     2.96 Bohr mag/cell

     iteration # 13     ecut=    30.00 Ry     beta= 0.70
     Davidson diagonalization with overlap

---- Real-time Memory Report at c_bands before calling an iterative solver
            59 MiB given to the printing process from OS
             0 MiB allocation reported by mallinfo(arena+hblkhd)
           390 MiB available memory on the node where the printing process lives
------------------
     ethr =  2.73E-12,  avg # of iterations =  3.1

     total cpu time spent up to now is       18.1 secs

     total energy              =    -352.84027988 Ry
     estimated scf accuracy    <          7.8E-11 Ry

     total magnetization       =     2.92 Bohr mag/cell
     absolute magnetization    =     2.96 Bohr mag/cell

     iteration # 14     ecut=    30.00 Ry     beta= 0.70
     Davidson diagonalization with overlap

---- Real-time Memory Report at c_bands before calling an iterative solver
            59 MiB given to the printing process from OS
             0 MiB allocation reported by mallinfo(arena+hblkhd)
           382 MiB available memory on the node where the printing process lives
------------------
     ethr =  3.69E-13,  avg # of iterations =  2.0

     total cpu time spent up to now is       18.5 secs

     total energy              =    -352.84027988 Ry
     estimated scf accuracy    <          3.9E-12 Ry

     total magnetization       =     2.92 Bohr mag/cell
     absolute magnetization    =     2.96 Bohr mag/cell

     iteration # 15     ecut=    30.00 Ry     beta= 0.70
     Davidson diagonalization with overlap

---- Real-time Memory Report at c_bands before calling an iterative solver
            59 MiB given to the printing process from OS
             0 MiB allocation reported by mallinfo(arena+hblkhd)
           389 MiB available memory on the node where the printing process lives
------------------
     ethr =  1.00E-13,  avg # of iterations =  1.6

     total cpu time spent up to now is       18.9 secs

     total energy              =    -352.84027988 Ry
     estimated scf accuracy    <          1.4E-12 Ry

     total magnetization       =     2.92 Bohr mag/cell
     absolute magnetization    =     2.96 Bohr mag/cell

     iteration # 16     ecut=    30.00 Ry     beta= 0.70
     Davidson diagonalization with overlap

---- Real-time Memory Report at c_bands before calling an iterative solver
            59 MiB given to the printing process from OS
             0 MiB allocation reported by mallinfo(arena+hblkhd)
           389 MiB available memory on the node where the printing process lives
------------------
     ethr =  1.00E-13,  avg # of iterations =  1.0

     Magnetic moment per site  (integrated on atomic sphere of radius R)
     atom   1 (R=0.234)  charge= 12.7165  magn=  2.5498
     atom   2 (R=0.234)  charge=  3.6650  magn= -0.0126

     total cpu time spent up to now is       19.3 secs

     End of self-consistent calculation

 ------ SPIN UP ------------


          k = 0.0000 0.0000 0.0000 (   821 PWs)   bands (ev):

   -70.2693 -39.0379 -39.0379 -39.0379  -4.5795   5.3761   5.3761   5.3761
     8.1848   8.1848  12.6298  12.6298  12.6298  13.2755  17.3981

     occupation numbers 
     1.0000   1.0000   1.0000   1.0000   1.0000   1.0000   1.0000   1.0000
     1.0000   1.0000   0.0000   0.0000   0.0000   0.0000   0.0000

          k = 0.1530 0.1530-0.1530 (   800 PWs)   bands (ev):

   -70.2688 -39.0427 -39.0384 -39.0384  -4.2400   4.8366   5.4923   5.4923
     8.1667   8.1667  10.8654  12.1361  12.1361  14.6148  17.4795

     occupation numbers 
     1.0000   1.0000   1.0000   1.0000   1.0000   1.0000   1.0000   1.0000
     1.0000   1.0000   0.1752   0.0000   0.0000   0.0000   0.0000

          k = 0.3059 0.3059-0.3059 (   796 PWs)   bands (ev):

   -70.2683 -39.0503 -39.0398 -39.0398  -3.6056   4.0316   5.6270   5.6270
     8.3395   8.3395   9.0683  11.2686  11.2686  15.0415  18.0602

     occupation numbers 
     1.0000   1.0000   1.0000   1.0000   1.0000   1.0000   1.0000   1.0000
     1.0000   1.0000   1.0000   0.0099   0.0099   0.0000   0.0000

          k = 0.3059 0.0000 0.0000 (   801 PWs)   bands (ev):

   -70.2687 -39.0425 -39.0396 -39.0396  -4.1272   4.7100   5.5565   5.5565
     7.9101   8.3402  11.3680  11.3680  11.4656  14.8516  16.6460

     occupation numbers 
     1.0000   1.0000   1.0000   1.0000   1.0000   1.0000   1.0000   1.0000
     1.0000   1.0000   0.0037   0.0037   0.0013   0.0000   0.0000

          k = 0.4589 0.1530-0.1530 (   797 PWs)   bands (ev):

   -70.2683 -39.0482 -39.0416 -39.0409  -3.5814   4.2362   5.5505   5.7390
     7.9675   8.4741   9.3754  10.5744  10.8540  15.5936  17.2932

[...]
------------------
     ethr =  2.36E-12,  avg # of iterations =  3.1

     total cpu time spent up to now is       59.2 secs

     total energy              =    -352.73867572 Ry
     estimated scf accuracy    <          9.3E-10 Ry

     total magnetization       =    -0.00 Bohr mag/cell
     absolute magnetization    =     0.00 Bohr mag/cell

     iteration # 12     ecut=    30.00 Ry     beta= 0.70
     Davidson diagonalization with overlap

---- Real-time Memory Report at c_bands before calling an iterative solver
            59 MiB given to the printing process from OS
             0 MiB allocation reported by mallinfo(arena+hblkhd)
           390 MiB available memory on the node where the printing process lives
------------------
     ethr =  2.36E-12,  avg # of iterations =  2.9

     total cpu time spent up to now is       59.6 secs

     total energy              =    -352.73867572 Ry
     estimated scf accuracy    <          2.4E-09 Ry

     total magnetization       =    -0.00 Bohr mag/cell
     absolute magnetization    =     0.00 Bohr mag/cell

     iteration # 13     ecut=    30.00 Ry     beta= 0.70
     Davidson diagonalization with overlap

---- Real-time Memory Report at c_bands before calling an iterative solver
            59 MiB given to the printing process from OS
             0 MiB allocation reported by mallinfo(arena+hblkhd)
           390 MiB available memory on the node where the printing process lives
------------------
     ethr =  2.36E-12,  avg # of iterations =  2.5

     total cpu time spent up to now is       60.0 secs

     total energy              =    -352.73867572 Ry
     estimated scf accuracy    <          4.6E-10 Ry

     total magnetization       =    -0.00 Bohr mag/cell
     absolute magnetization    =     0.00 Bohr mag/cell

     iteration # 14     ecut=    30.00 Ry     beta= 0.70
     Davidson diagonalization with overlap

---- Real-time Memory Report at c_bands before calling an iterative solver
            59 MiB given to the printing process from OS
             0 MiB allocation reported by mallinfo(arena+hblkhd)
           363 MiB available memory on the node where the printing process lives
------------------
     ethr =  2.17E-12,  avg # of iterations =  1.6

     total cpu time spent up to now is       60.4 secs

     total energy              =    -352.73867572 Ry
     estimated scf accuracy    <          2.8E-12 Ry

     total magnetization       =    -0.00 Bohr mag/cell
     absolute magnetization    =     0.00 Bohr mag/cell

     iteration # 15     ecut=    30.00 Ry     beta= 0.70
     Davidson diagonalization with overlap

---- Real-time Memory Report at c_bands before calling an iterative solver
            59 MiB given to the printing process from OS
             0 MiB allocation reported by mallinfo(arena+hblkhd)
           363 MiB available memory on the node where the printing process lives
------------------
     ethr =  1.00E-13,  avg # of iterations =  1.9

     Magnetic moment per site  (integrated on atomic sphere of radius R)
     atom   1 (R=0.225)  charge= 12.6279  magn= -0.0000
     atom   2 (R=0.225)  charge=  3.4379  magn=  0.0000

     total cpu time spent up to now is       60.7 secs

     End of self-consistent calculation

 ------ SPIN UP ------------


          k = 0.0000 0.0000 0.0000 (   537 PWs)   bands (ev):

   -67.5523 -36.3283 -36.3283 -36.3283  -3.5254   7.0546   7.0546   7.0546
    11.0838  11.0838  15.6353  15.6353  15.6353  15.6954  19.6285

     occupation numbers 
     1.0000   1.0000   1.0000   1.0000   1.0000   1.0000   1.0000   1.0000
     0.9976   0.9976   0.0000   0.0000   0.0000   0.0000   0.0000

          k = 0.1585 0.1585-0.1585 (   564 PWs)   bands (ev):

   -67.5522 -36.3379 -36.3301 -36.3301  -3.1419   6.3418   7.1556   7.1556
    10.9205  10.9205  13.6817  15.0308  15.0308  17.0836  19.7237

     occupation numbers 
     1.0000   1.0000   1.0000   1.0000   1.0000   1.0000   1.0000   1.0000
     0.9996   0.9996   0.0000   0.0000   0.0000   0.0000   0.0000

          k = 0.3171 0.3171-0.3171 (   571 PWs)   bands (ev):

   -67.5514 -36.3527 -36.3325 -36.3325  -2.4003   5.3139   7.3027   7.3027
    11.1327  11.1327  11.7508  13.9743  13.9743  17.4459  20.4180

     occupation numbers 
     1.0000   1.0000   1.0000   1.0000   1.0000   1.0000   1.0000   1.0000
     0.9960   0.9960   0.6950   0.0000   0.0000   0.0000   0.0000

          k = 0.3171 0.0000 0.0000 (   568 PWs)   bands (ev):

   -67.5521 -36.3380 -36.3321 -36.3321  -3.0121   6.2229   7.1923   7.1923
    10.4599  11.2721  14.1106  14.1106  14.5390  17.0469  19.1220

     occupation numbers 
     1.0000   1.0000   1.0000   1.0000   1.0000   1.0000   1.0000   1.0000
     1.0000   0.9850   0.0000   0.0000   0.0000   0.0000   0.0000

          k = 0.4756 0.1585-0.1585 (   564 PWs)   bands (ev):

   -67.5512 -36.3487 -36.3355 -36.3347  -2.3734   5.6059   7.1574   7.3889
    10.4979  11.3930  11.9977  13.2686  13.8596  17.9686  19.7425

     occupation numbers 
     1.0000   1.0000   1.0000   1.0000   1.0000   1.0000   1.0000   1.0000
     1.0000   0.9600   0.3650   0.0000   0.0000   0.0000   0.0000

          k =-0.1585-0.4756 0.4756 (   562 PWs)   bands (ev):

   -67.5508 -36.3519 -36.3389 -36.3342  -2.0927   5.5534   6.7799   7.4650
    10.7739  11.0587  11.6211  12.9864  13.6114  18.2050  20.1143

     occupation numbers 
     1.0000   1.0000   1.0000   1.0000   1.0000   1.0000   1.0000   1.0000
     1.0000   0.9982   0.8314   0.0001   0.0000   0.0000   0.0000

          k = 0.0000-0.3171 0.3171 (   562 PWs)   bands (ev):

   -67.5515 -36.3452 -36.3359 -36.3313  -2.6199   5.9011   6.9493   7.3574
    10.6835  11.2509  12.4986  13.2812  14.7891  18.8416  19.5129

     occupation numbers 
     1.0000   1.0000   1.0000   1.0000   1.0000   1.0000   1.0000   1.0000
     1.0000   0.9875   0.0187   0.0000   0.0000   0.0000   0.0000

          k = 0.6342 0.0000 0.0000 (   560 PWs)   bands (ev):

   -67.5507 -36.3521 -36.3377 -36.3377  -2.0247   5.2162   7.6148   7.6148
    10.0141  11.6149  12.2781  12.3895  12.3895  17.2366  18.9019

     occupation numbers 
     1.0000   1.0000   1.0000   1.0000   1.0000   1.0000   1.0000   1.0000
     1.0000   0.8367   0.0940   0.0443   0.0443   0.0000   0.0000

          k = 0.0000-0.6342 0.6342 (   564 PWs)   bands (ev):

   -67.5506 -36.3521 -36.3420 -36.3374  -1.8461   5.4213   7.0757   7.6491
    10.0123  11.3418  11.4084  12.6000  12.6474  17.7900  19.7647

     occupation numbers 
     1.0000   1.0000   1.0000   1.0000   1.0000   1.0000   1.0000   1.0000
     1.0000   0.9730   0.9551   0.0075   0.0047   0.0000   0.0000

          k =-0.1585-0.4756 0.7927 (   565 PWs)   bands (ev):

   -67.5507 -36.3500 -36.3422 -36.3368  -1.9482   5.7348   6.6931   7.5541
    10.2760  10.8810  11.7352  12.4281  13.3374  18.8086  20.0861

     occupation numbers 
     1.0000   1.0000   1.0000   1.0000   1.0000   1.0000   1.0000   1.0000
     1.0000   0.9998   0.7137   0.0332   0.0000   0.0000   0.0000

 ------ SPIN DOWN ----------


          k = 0.0000 0.0000 0.0000 (   537 PWs)   bands (ev):

   -67.5523 -36.3283 -36.3283 -36.3283  -3.5254   7.0546   7.0546   7.0546
    11.0838  11.0838  15.6353  15.6353  15.6353  15.6954  19.6285

     occupation numbers 
     1.0000   1.0000   1.0000   1.0000   1.0000   1.0000   1.0000   1.0000
     0.9976   0.9976   0.0000   0.0000   0.0000   0.0000   0.0000

          k = 0.1585 0.1585-0.1585 (   564 PWs)   bands (ev):

   -67.5522 -36.3379 -36.3301 -36.3301  -3.1419   6.3418   7.1556   7.1556
    10.9204  10.9204  13.6817  15.0308  15.0308  17.0836  19.7236

     occupation numbers 
     1.0000   1.0000   1.0000   1.0000   1.0000   1.0000   1.0000   1.0000
     0.9996   0.9996   0.0000   0.0000   0.0000   0.0000   0.0000

          k = 0.3171 0.3171-0.3171 (   571 PWs)   bands (ev):

   -67.5514 -36.3527 -36.3325 -36.3325  -2.4003   5.3139   7.3027   7.3027
    11.1327  11.1327  11.7508  13.9743  13.9743  17.4459  20.4180

     occupation numbers 
     1.0000   1.0000   1.0000   1.0000   1.0000   1.0000   1.0000   1.0000
     0.9960   0.9960   0.6950   0.0000   0.0000   0.0000   0.0000

          k = 0.3171 0.0000 0.0000 (   568 PWs)   bands (ev):

   -67.5521 -36.3380 -36.3321 -36.3321  -3.0121   6.2229   7.1923   7.1923
    10.4599  11.2721  14.1106  14.1106  14.5390  17.0469  19.1220

     occupation numbers 
     1.0000   1.0000   1.0000   1.0000   1.0000   1.0000   1.0000   1.0000
     1.0000   0.9850   0.0000   0.0000   0.0000   0.0000   0.0000

          k = 0.4756 0.1585-0.1585 (   564 PWs)   bands (ev):

   -67.5512 -36.3487 -36.3355 -36.3347  -2.3734   5.6059   7.1574   7.3889
    10.4979  11.3929  11.9977  13.2686  13.8596  17.9686  19.7425

     occupation numbers 
     1.0000   1.0000   1.0000   1.0000   1.0000   1.0000   1.0000   1.0000
     1.0000   0.9600   0.3650   0.0000   0.0000   0.0000   0.0000

          k =-0.1585-0.4756 0.4756 (   562 PWs)   bands (ev):

   -67.5508 -36.3519 -36.3389 -36.3342  -2.0927   5.5534   6.7799   7.4650
    10.7739  11.0587  11.6211  12.9864  13.6114  18.2050  20.1143

     occupation numbers 
     1.0000   1.0000   1.0000   1.0000   1.0000   1.0000   1.0000   1.0000
     1.0000   0.9982   0.8314   0.0001   0.0000   0.0000   0.0000

          k = 0.0000-0.3171 0.3171 (   562 PWs)   bands (ev):

   -67.5515 -36.3452 -36.3359 -36.3313  -2.6199   5.9011   6.9493   7.3574
    10.6835  11.2509  12.4986  13.2812  14.7891  18.8416  19.5129

     occupation numbers 
     1.0000   1.0000   1.0000   1.0000   1.0000   1.0000   1.0000   1.0000
     1.0000   0.9875   0.0187   0.0000   0.0000   0.0000   0.0000

          k = 0.6342 0.0000 0.0000 (   560 PWs)   bands (ev):

   -67.5507 -36.3521 -36.3377 -36.3377  -2.0247   5.2162   7.6148   7.6148
    10.0141  11.6149  12.2781  12.3894  12.3894  17.2366  18.9019

     occupation numbers 
     1.0000   1.0000   1.0000   1.0000   1.0000   1.0000   1.0000   1.0000
     1.0000   0.8367   0.0940   0.0443   0.0443   0.0000   0.0000

          k = 0.0000-0.6342 0.6342 (   564 PWs)   bands (ev):

   -67.5506 -36.3521 -36.3420 -36.3374  -1.8461   5.4213   7.0757   7.6491
    10.0123  11.3418  11.4084  12.6000  12.6474  17.7900  19.7647

     occupation numbers 
     1.0000   1.0000   1.0000   1.0000   1.0000   1.0000   1.0000   1.0000
     1.0000   0.9730   0.9551   0.0075   0.0047   0.0000   0.0000

          k =-0.1585-0.4756 0.7927 (   565 PWs)   bands (ev):

   -67.5507 -36.3500 -36.3423 -36.3368  -1.9482   5.7348   6.6931   7.5541
    10.2760  10.8810  11.7352  12.4281  13.3373  18.8086  20.0861

     occupation numbers 
     1.0000   1.0000   1.0000   1.0000   1.0000   1.0000   1.0000   1.0000
     1.0000   0.9998   0.7137   0.0332   0.0000   0.0000   0.0000

     the Fermi energy is    11.8981 ev

!    total energy              =    -352.73867572 Ry
     total all-electron energy =     -3115.597079 Ry
     estimated scf accuracy    <          5.3E-14 Ry
     smearing contrib. (-TS)   =      -0.01267414 Ry
     internal energy E=F+TS    =    -352.72600158 Ry

     The total energy is F=E-TS. E is the sum of the following terms:
     one-electron contribution =    -127.78805292 Ry
     hartree contribution      =      75.62243189 Ry
     xc contribution           =     -33.04901331 Ry
     ewald contribution        =    -143.78684283 Ry
     one-center paw contrib.   =    -123.72452440 Ry
      -> PAW hartree energy AE =     184.07600340 Ry
      -> PAW hartree energy PS =    -184.99171228 Ry
      -> PAW xc energy AE      =    -104.67653533 Ry
      -> PAW xc energy PS      =      28.00019973 Ry
      -> total E_H with PAW    =      74.70672301 Ry
      -> total E_XC with PAW   =    -109.72534891 Ry

     total magnetization       =    -0.00 Bohr mag/cell
     absolute magnetization    =     0.00 Bohr mag/cell

     convergence has been achieved in  15 iterations

     Forces acting on atoms (cartesian axes, Ry/au):

     atom    1 type  1   force =     0.00000000    0.00000000   -0.00000000
     atom    2 type  2   force =    -0.00000000   -0.00000000    0.00000000
     The non-local contrib.  to forces
     atom    1 type  1   force =     0.00000000   -0.00000000    0.00000000
     atom    2 type  2   force =     0.00000000    0.00000000    0.00000000
     The ionic contribution  to forces
     atom    1 type  1   force =     0.00000000    0.00000000    0.00000000
     atom    2 type  2   force =    -0.00000000   -0.00000000   -0.00000000
     The local contribution  to forces
     atom    1 type  1   force =     0.00000000    0.00000000    0.00000000
     atom    2 type  2   force =     0.00000000    0.00000000    0.00000000
     The core correction contribution to forces
     atom    1 type  1   force =     0.00000000    0.00000000    0.00000000
     atom    2 type  2   force =     0.00000000    0.00000000   -0.00000000
     The Hubbard contrib.    to forces
     atom    1 type  1   force =     0.00000000    0.00000000    0.00000000
     atom    2 type  2   force =     0.00000000    0.00000000    0.00000000
     The SCF correction term to forces
     atom    1 type  1   force =    -0.00000000   -0.00000000    0.00000000
     atom    2 type  2   force =     0.00000000    0.00000000   -0.00000000

     Total force =     0.000000     Total SCF correction =     0.000000


     Computing stress (Cartesian axis) and pressure

          total   stress  (Ry/bohr**3)                   (kbar)     P=     -485.27
  -0.00329879   0.00000000   0.00000000         -485.27        0.00        0.00
   0.00000000  -0.00329879   0.00000000            0.00     -485.27        0.00
   0.00000000   0.00000000  -0.00329879            0.00        0.00     -485.27

     kinetic stress (kbar)  22338.83      0.00     -0.00
                                0.00  22338.83     -0.00
                               -0.00     -0.00  22338.83

     local   stress (kbar)   2336.84      0.00      0.00
                                0.00   2336.84      0.00
                                0.00      0.00   2336.84

     nonloc. stress (kbar)  -1531.18      0.00      0.00
                                0.00  -1531.18      0.00
                                0.00      0.00  -1531.18

     hartree stress (kbar)  18284.82     -0.00      0.00
                               -0.00  18284.82     -0.00
                                0.00     -0.00  18284.82

     exc-cor stress (kbar)  -3336.23      0.00      0.00
                                0.00  -3336.23      0.00
                                0.00      0.00  -3336.23

     corecor stress (kbar)  -3812.00     -0.00     -0.00
                               -0.00  -3812.00     -0.00
                               -0.00     -0.00  -3812.00

     ewald   stress (kbar) -34766.35     -0.00     -0.00
                               -0.00 -34766.35     -0.00
                               -0.00     -0.00 -34766.35

     hubbard stress (kbar)      0.00      0.00      0.00
                                0.00      0.00      0.00
                                0.00      0.00      0.00

     DFT-D   stress (kbar)      0.00      0.00      0.00
                                0.00      0.00      0.00
                                0.00      0.00      0.00

     XDM     stress (kbar)      0.00      0.00      0.00
                                0.00      0.00      0.00
                                0.00      0.00      0.00

     dft-nl  stress (kbar)      0.00      0.00      0.00
                                0.00      0.00      0.00
                                0.00      0.00      0.00

     TS-vdW  stress (kbar)      0.00      0.00      0.00
                                0.00      0.00      0.00
                                0.00      0.00      0.00

     MDB     stress (kbar)      0.00      0.00      0.00
                                0.00      0.00      0.00
                                0.00      0.00      0.00

     3D-RISM stress (kbar)      0.00      0.00      0.00
                                0.00      0.00      0.00
                                0.00      0.00      0.00


     Writing all to output data dir ./temp/mns.save/ :
     XML data file, charge density, pseudopotentials, collected wavefunctions

     init_run     :      0.92s CPU      0.97s WALL (       2 calls)
     electrons    :     51.26s CPU     54.70s WALL (       9 calls)
     update_pot   :      1.09s CPU      1.21s WALL (       6 calls)
     forces       :      0.47s CPU      0.48s WALL (       9 calls)
     stress       :      1.78s CPU      1.79s WALL (       9 calls)

     Called by init_run:
     wfcinit      :      0.10s CPU      0.10s WALL (       2 calls)
     wfcinit:atom :      0.00s CPU      0.00s WALL (      40 calls)
     wfcinit:wfcr :      0.10s CPU      0.10s WALL (      40 calls)
     potinit      :      0.64s CPU      0.70s WALL (       3 calls)
     hinit0       :      0.31s CPU      0.31s WALL (       2 calls)

     Called by electrons:
     c_bands      :     20.40s CPU     21.25s WALL (     128 calls)
     sum_band     :      6.59s CPU      6.80s WALL (     128 calls)
     v_of_rho     :      0.83s CPU      0.85s WALL (     134 calls)
     v_h          :      0.02s CPU      0.02s WALL (     134 calls)
     v_xc         :      0.94s CPU      0.96s WALL (     152 calls)
     newd         :      1.96s CPU      2.00s WALL (     134 calls)
     PAW_pot      :     23.82s CPU     26.41s WALL (     140 calls)
     mix_rho      :      0.19s CPU      0.20s WALL (     128 calls)

     Called by c_bands:
     init_us_2    :      0.37s CPU      0.39s WALL (    5640 calls)
     cegterg      :     19.56s CPU     20.39s WALL (    2560 calls)

     Called by sum_band:
     sum_band:wei :      0.03s CPU      0.03s WALL (     128 calls)
     sum_band:loo :      2.15s CPU      2.32s WALL (     128 calls)
     sum_band:buf :      0.01s CPU      0.02s WALL (    2560 calls)
     sum_band:ini :      0.16s CPU      0.17s WALL (    2560 calls)
     sum_band:cal :      0.51s CPU      0.55s WALL (    2680 calls)
     sum_band:bec :      0.05s CPU      0.05s WALL (    2680 calls)
     addusdens    :      4.11s CPU      4.14s WALL (     128 calls)
                                        0.00s GPU  (     128 calls)
     addusd:skk   :      0.01s CPU      0.01s WALL (     256 calls)
                                        0.00s GPU  (     256 calls)

     Called by *egterg:
     cdiaghg      :      2.51s CPU      2.61s WALL (   10238 calls)
     cegterg:over :      1.61s CPU      1.69s WALL (    7878 calls)
     cegterg:upda :      0.67s CPU      0.70s WALL (    7878 calls)
     cegterg:last :      1.57s CPU      1.62s WALL (    5633 calls)
     h_psi        :     11.15s CPU     11.64s WALL (   10478 calls)
     s_psi        :      1.26s CPU      1.32s WALL (   10478 calls)
     g_psi        :      0.05s CPU      0.05s WALL (    7878 calls)

     Called by h_psi:
     h_psi:calbec :      1.46s CPU      1.53s WALL (   10478 calls)
     vloc_psi     :      8.28s CPU      8.64s WALL (   10478 calls)
     add_vuspsi   :      1.30s CPU      1.36s WALL (   10478 calls)

     General routines
     calbec       :      2.10s CPU      2.21s WALL (   14058 calls)
     fft          :      0.56s CPU      0.57s WALL (    3702 calls)
     ffts         :      0.15s CPU      0.16s WALL (     524 calls)
     fftw         :      8.32s CPU      8.68s WALL (  247964 calls)
     interpolate  :      0.17s CPU      0.17s WALL (     268 calls)

     Parallel routines

     PAW routines
     PAW_pot      :     23.82s CPU     26.41s WALL (     140 calls)
     PAW_symme    :      0.12s CPU      0.14s WALL (     268 calls)

     PWSCF        :     57.17s CPU   1m 0.94s WALL


   This run was terminated on:  10: 7: 7   1Feb2025            

=------------------------------------------------------------------------------=
   JOB DONE.
=------------------------------------------------------------------------------=
