
     Program PWSCF v.7.3.1 starts on 17Jan2025 at 23:17:25 

     This program is part of the open-source Quantum ESPRESSO suite
     for quantum simulation of materials; please cite
         "P. Giannozzi et al., J. Phys.:Condens. Matter 21 395502 (2009);
         "P. Giannozzi et al., J. Phys.:Condens. Matter 29 465901 (2017);
         "P. Giannozzi et al., J. Chem. Phys. 152 154105 (2020);
          URL http://www.quantum-espresso.org", 
     in publications or presentations arising from this work. More details at
     http://www.quantum-espresso.org/quote

     Parallel version (MPI), running on     4 processors

     MPI processes distributed on     1 nodes
     5154 MiB available memory on the printing compute node when the environment starts

     Reading input from relax.in

     Current dimensions of program PWSCF are:
     Max number of different atomic species (ntypx) = 10
     Max number of k-points (npk) =  40000
     Max angular momentum in pseudopotentials (lmaxx) =  4
     file Mn.pbe-spn-kjpaw_psl.0.3.1.UPF: wavefunction(s)  3P 3D renormalized
     file Mn.pbe-spn-kjpaw_psl.0.3.1.UPF: wavefunction(s)  3P 3D renormalized
     file S.pbe-n-kjpaw_psl.1.0.0.UPF: wavefunction(s)  3S 3P renormalized
     Message from routine setup:
     using ibrav=0 with symmetry is DISCOURAGED, use correct ibrav instead

     R & G space division:  proc/nbgrp/npool/nimage =       4
     Subspace diagonalization in iterative solution of the eigenvalue problem:
     a serial algorithm will be used


     Parallelization info
     --------------------
     sticks:   dense  smooth     PW     G-vecs:    dense   smooth      PW
     Min         279     225     73                 4412     3174     574
     Max         282     226     75                 4413     3175     575
     Sum        1121     901    295                17651    12697    2297

     Using Slab Decomposition



     bravais-lattice index     =            0
     lattice parameter (alat)  =      14.7866  a.u.
     unit-cell volume          =     571.5148 (a.u.)^3
     number of atoms/cell      =            4
     number of atomic types    =            3
     number of electrons       =        42.00
     number of Kohn-Sham states=           25
     kinetic-energy cutoff     =      30.0000  Ry
     charge density cutoff     =     150.0000  Ry
     scf convergence threshold =      1.0E-10
     mixing beta               =       0.7000
     number of iterations used =            8  plain     mixing
     energy convergence thresh.=      1.0E-05
     force convergence thresh. =      1.0E-04
     Exchange-correlation= SLA  PW   PBX  PBC
                           (   1   4   3   4   0   0   0)
     nstep                     =           50


     celldm(1)=  14.786571  celldm(2)=   0.000000  celldm(3)=   0.000000
     celldm(4)=   0.000000  celldm(5)=   0.000000  celldm(6)=   0.000000

     crystal axes: (cart. coord. in units of alat)
               a(1) = (   1.000000   0.000000   0.000000 )  
               a(2) = (   0.250000   0.433013   0.000000 )  
               a(3) = (   0.250000   0.144338   0.408248 )  

     reciprocal axes: (cart. coord. in units 2 pi/alat)
               b(1) = (  1.000000 -0.577350 -0.408248 )  
               b(2) = (  0.000000  2.309401 -0.816496 )  
               b(3) = (  0.000000  0.000000  2.449490 )  


     PseudoPot. # 1 for Mn read from file:
     ./../../../pseudos/Mn.pbe-spn-kjpaw_psl.0.3.1.UPF
     MD5 check sum: ba19e6d7ccbc12830efad05ba8577d9c
     Pseudo is Projector augmented-wave + core cor, Zval = 15.0
     Generated using &quot;atomic&quot; code by A. Dal Corso  v.6.2.2
     Shape of augmentation charge: PSQ
     Using radial grid of 1187 points,  6 beta functions with: 
                l(1) =   0
                l(2) =   0
                l(3) =   1
                l(4) =   1
                l(5) =   2
                l(6) =   2
     Q(r) pseudized with 0 coefficients 


     PseudoPot. # 2 for Mn read from file:
     ./../../../pseudos/Mn.pbe-spn-kjpaw_psl.0.3.1.UPF
     MD5 check sum: ba19e6d7ccbc12830efad05ba8577d9c
     Pseudo is Projector augmented-wave + core cor, Zval = 15.0
     Generated using &quot;atomic&quot; code by A. Dal Corso  v.6.2.2
     Shape of augmentation charge: PSQ
     Using radial grid of 1187 points,  6 beta functions with: 
                l(1) =   0
                l(2) =   0
                l(3) =   1
                l(4) =   1
                l(5) =   2
                l(6) =   2
     Q(r) pseudized with 0 coefficients 


     PseudoPot. # 3 for S  read from file:
     ./../../../pseudos/S.pbe-n-kjpaw_psl.1.0.0.UPF
     MD5 check sum: fb45dfebcf3e72a4e1bd4a866ec2e262
     Pseudo is Projector augmented-wave + core cor, Zval =  6.0
     Generated using &quot;atomic&quot; code by A. Dal Corso  v.6.3
     Shape of augmentation charge: PSQ
     Using radial grid of 1151 points,  6 beta functions with: 
                l(1) =   0
                l(2) =   0
                l(3) =   1
                l(4) =   1
                l(5) =   2
                l(6) =   2
     Q(r) pseudized with 0 coefficients 


     atomic species   valence    mass     pseudopotential
     Mn1              15.00    54.93800     Mn( 1.00)
     Mn2              15.00    54.93800     Mn( 1.00)
     S                 6.00    32.06500     S ( 1.00)

     Starting magnetic structure 
     atomic species   magnetization
     Mn1             0.200
     Mn2             0.200
     S               0.000

      2 Sym. Ops. (no inversion) found


                                    s                        frac. trans.

      isym =  1     identity                                     

 cryst.   s( 1) = (     1          0          0      )
                  (     0          1          0      )
                  (     0          0          1      )

 cart.    s( 1) = (  1.0000000  0.0000000  0.0000000 )
                  (  0.0000000  1.0000000  0.0000000 )
                  (  0.0000000  0.0000000  1.0000000 )


      isym =  2     inv. 180 deg rotation - cryst. axis [1,1,0]  

 cryst.   s( 2) = (     1         -2          0      )
                  (     0         -1          0      )
                  (     0         -1          1      )

 cart.    s( 2) = (  0.5000001 -0.8660253 -0.0000000 )
                  ( -0.8660254 -0.5000001 -0.0000001 )
                  (  0.0000000  0.0000000  1.0000000 )


   Cartesian axes

     site n.     atom                  positions (alat units)
         1        Mn1    tau(   1) = (   0.7500000   0.4330127   0.3061862  )
         2        Mn2    tau(   2) = (   1.2500000   0.4330127   0.3061862  )
         3        S      tau(   3) = (   0.0000000   0.0000000   0.0000000  )
         4        S      tau(   4) = (   0.5000000   0.0000000   0.0000000  )

   Crystallographic axes

     site n.     atom                  positions (cryst. coord.)
         1        Mn1    tau(   1) = (  0.3750000  0.7500000  0.7500000  )
         2        Mn2    tau(   2) = (  0.8750000  0.7500000  0.7500000  )
         3        S      tau(   3) = (  0.0000000  0.0000000  0.0000000  )
         4        S      tau(   4) = (  0.5000000  0.0000000  0.0000000  )

     number of k points=    38  Gaussian smearing, width (Ry)=  0.0100
                       cart. coord. in units 2pi/alat
        k(    1) = (   0.0000000   0.0000000   0.0000000), wk =   0.0133333
        k(    2) = (   0.0000000   0.0000000   0.4898979), wk =   0.0266667
        k(    3) = (   0.0000000   0.0000000   0.9797958), wk =   0.0266667
        k(    4) = (   0.0000000   0.4618802  -0.1632993), wk =   0.0266667
        k(    5) = (   0.0000000   0.4618802   0.3265986), wk =   0.0266667
        k(    6) = (   0.0000000   0.4618802   0.8164966), wk =   0.0266667
        k(    7) = (   0.0000000   0.4618802  -1.1430951), wk =   0.0266667
        k(    8) = (   0.0000000   0.4618802  -0.6531972), wk =   0.0266667
        k(    9) = (   0.0000000   0.9237604  -0.3265986), wk =   0.0266667
        k(   10) = (   0.0000000   0.9237604   0.1632993), wk =   0.0266667
        k(   11) = (   0.0000000   0.9237604   0.6531973), wk =   0.0266667
        k(   12) = (   0.0000000   0.9237604  -1.3063944), wk =   0.0266667
        k(   13) = (   0.0000000   0.9237604  -0.8164965), wk =   0.0266667
        k(   14) = (   0.3333333  -0.1924501  -0.1360827), wk =   0.0266667
        k(   15) = (   0.3333333  -0.1924501   0.3538152), wk =   0.0266667
        k(   16) = (   0.3333333  -0.1924501   0.8437131), wk =   0.0266667
        k(   17) = (   0.3333333  -0.1924501  -1.1158786), wk =   0.0266667
        k(   18) = (   0.3333333  -0.1924501  -0.6259807), wk =   0.0266667
        k(   19) = (   0.3333333   0.2694301  -0.2993820), wk =   0.0266667
        k(   20) = (   0.3333333   0.2694301   0.1905159), wk =   0.0266667
        k(   21) = (   0.3333333   0.2694301   0.6804138), wk =   0.0266667
        k(   22) = (   0.3333333   0.2694301  -1.2791779), wk =   0.0266667
        k(   23) = (   0.3333333   0.2694301  -0.7892800), wk =   0.0266667
        k(   24) = (   0.3333333   0.7313103  -0.4626813), wk =   0.0266667
        k(   25) = (   0.3333333   0.7313103   0.0272166), wk =   0.0266667
        k(   26) = (   0.3333333   0.7313103   0.5171145), wk =   0.0266667
        k(   27) = (   0.3333333   0.7313103  -1.4424772), wk =   0.0266667
        k(   28) = (   0.3333333   0.7313103  -0.9525793), wk =   0.0266667
        k(   29) = (   0.3333333  -1.1162105   0.1905158), wk =   0.0266667
        k(   30) = (   0.3333333  -1.1162105   0.6804138), wk =   0.0266667
        k(   31) = (   0.3333333  -1.1162105   1.1703117), wk =   0.0266667
        k(   32) = (   0.3333333  -1.1162105  -0.7892800), wk =   0.0266667
        k(   33) = (   0.3333333  -1.1162105  -0.2993821), wk =   0.0266667
        k(   34) = (   0.3333333  -0.6543303   0.0272165), wk =   0.0266667
        k(   35) = (   0.3333333  -0.6543303   0.5171145), wk =   0.0266667
        k(   36) = (   0.3333333  -0.6543303   1.0070124), wk =   0.0266667
        k(   37) = (   0.3333333  -0.6543303  -0.9525793), wk =   0.0266667
        k(   38) = (   0.3333333  -0.6543303  -0.4626814), wk =   0.0266667

                       cryst. coord.
        k(    1) = (   0.0000000   0.0000000   0.0000000), wk =   0.0133333
        k(    2) = (   0.0000000   0.0000000   0.2000000), wk =   0.0266667
        k(    3) = (   0.0000000   0.0000000   0.4000000), wk =   0.0266667
        k(    4) = (   0.0000000   0.2000000   0.0000000), wk =   0.0266667
        k(    5) = (   0.0000000   0.2000000   0.2000000), wk =   0.0266667
        k(    6) = (   0.0000000   0.2000000   0.4000000), wk =   0.0266667
        k(    7) = (   0.0000000   0.2000000  -0.4000000), wk =   0.0266667
        k(    8) = (   0.0000000   0.2000000  -0.2000000), wk =   0.0266667
        k(    9) = (   0.0000000   0.4000000   0.0000000), wk =   0.0266667
        k(   10) = (   0.0000000   0.4000000   0.2000000), wk =   0.0266667
        k(   11) = (   0.0000000   0.4000000   0.4000000), wk =   0.0266667
        k(   12) = (   0.0000000   0.4000000  -0.4000000), wk =   0.0266667
        k(   13) = (   0.0000000   0.4000000  -0.2000000), wk =   0.0266667
        k(   14) = (   0.3333333  -0.0000000  -0.0000000), wk =   0.0266667
        k(   15) = (   0.3333333  -0.0000000   0.2000000), wk =   0.0266667
        k(   16) = (   0.3333333  -0.0000000   0.4000000), wk =   0.0266667
        k(   17) = (   0.3333333  -0.0000000  -0.4000000), wk =   0.0266667
        k(   18) = (   0.3333333  -0.0000000  -0.2000000), wk =   0.0266667
        k(   19) = (   0.3333333   0.2000000  -0.0000000), wk =   0.0266667
        k(   20) = (   0.3333333   0.2000000   0.2000000), wk =   0.0266667
        k(   21) = (   0.3333333   0.2000000   0.4000000), wk =   0.0266667
        k(   22) = (   0.3333333   0.2000000  -0.4000000), wk =   0.0266667
        k(   23) = (   0.3333333   0.2000000  -0.2000000), wk =   0.0266667
        k(   24) = (   0.3333333   0.4000000   0.0000000), wk =   0.0266667
        k(   25) = (   0.3333333   0.4000000   0.2000000), wk =   0.0266667
        k(   26) = (   0.3333333   0.4000000   0.4000000), wk =   0.0266667
        k(   27) = (   0.3333333   0.4000000  -0.4000000), wk =   0.0266667
        k(   28) = (   0.3333333   0.4000000  -0.2000000), wk =   0.0266667
        k(   29) = (   0.3333333  -0.4000000   0.0000000), wk =   0.0266667
        k(   30) = (   0.3333333  -0.4000000   0.2000000), wk =   0.0266667
        k(   31) = (   0.3333333  -0.4000000   0.4000000), wk =   0.0266667
        k(   32) = (   0.3333333  -0.4000000  -0.4000000), wk =   0.0266667
        k(   33) = (   0.3333333  -0.4000000  -0.2000000), wk =   0.0266667
        k(   34) = (   0.3333333  -0.2000000  -0.0000000), wk =   0.0266667
        k(   35) = (   0.3333333  -0.2000000   0.2000000), wk =   0.0266667
        k(   36) = (   0.3333333  -0.2000000   0.4000000), wk =   0.0266667
        k(   37) = (   0.3333333  -0.2000000  -0.4000000), wk =   0.0266667
        k(   38) = (   0.3333333  -0.2000000  -0.2000000), wk =   0.0266667

     Dense  grid:    17651 G-vectors     FFT dimensions: (  60,  30,  30)

     Smooth grid:    12697 G-vectors     FFT dimensions: (  54,  25,  25)

     Dynamical RAM for                 wfc:       0.15 MB

     Dynamical RAM for     wfc (w. buffer):      11.63 MB

     Dynamical RAM for           str. fact:       0.20 MB

     Dynamical RAM for           local pot:       0.00 MB

     Dynamical RAM for          nlocal pot:       0.44 MB

     Dynamical RAM for                qrad:       2.95 MB

     Dynamical RAM for          rho,v,vnew:       1.06 MB

     Dynamical RAM for               rhoin:       0.35 MB

     Dynamical RAM for            rho*nmix:       2.15 MB

     Dynamical RAM for           G-vectors:       0.28 MB

     Dynamical RAM for          h,s,v(r/c):       0.11 MB

     Dynamical RAM for          <psi|beta>:       0.03 MB

     Dynamical RAM for                 psi:       0.30 MB

     Dynamical RAM for                hpsi:       0.30 MB

     Dynamical RAM for                spsi:       0.30 MB

     Dynamical RAM for      wfcinit/wfcrot:       0.36 MB

     Dynamical RAM for           addusdens:      12.73 MB

     Dynamical RAM for          addusforce:      12.88 MB

     Estimated static dynamical RAM per process >      17.84 MB

     Estimated max dynamical RAM per process >      32.87 MB

     Estimated total dynamical RAM >     131.50 MB

     Check: negative core charge=   -0.000237
     Generating pointlists ...
     new r_m :   0.1263 (alat units)  1.8676 (a.u.) for type    1
     new r_m :   0.1263 (alat units)  1.8676 (a.u.) for type    2
     new r_m :   0.1263 (alat units)  1.8676 (a.u.) for type    3

     Initial potential from superposition of free atoms

     starting charge      41.9989, renormalised to      42.0000
     Starting wfcs are   28 randomized atomic wfcs
     Checking if some PAW data can be deallocated... 
       PAW data deallocated on    3 nodes for type:  1
       PAW data deallocated on    3 nodes for type:  2
       PAW data deallocated on    2 nodes for type:  3

     total cpu time spent up to now is        1.8 secs

     Self-consistent Calculation

     iteration #  1     ecut=    30.00 Ry     beta= 0.70
     Davidson diagonalization with overlap

---- Real-time Memory Report at c_bands before calling an iterative solver
            57 MiB given to the printing process from OS
             0 MiB allocation reported by mallinfo(arena+hblkhd)
          5030 MiB available memory on the node where the printing process lives
------------------
     ethr =  1.00E-02,  avg # of iterations =  2.0

     Threshold (ethr) on eigenvalues was too large:
     Diagonalizing with lowered threshold

     Davidson diagonalization with overlap

---- Real-time Memory Report at c_bands before calling an iterative solver
            65 MiB given to the printing process from OS
             0 MiB allocation reported by mallinfo(arena+hblkhd)
          4993 MiB available memory on the node where the printing process lives
------------------
     ethr =  2.83E-04,  avg # of iterations =  4.1

     total cpu time spent up to now is        6.9 secs

     total energy              =    -705.44489494 Ry
     estimated scf accuracy    <       0.09659758 Ry

     total magnetization       =     7.42 Bohr mag/cell
     absolute magnetization    =     7.42 Bohr mag/cell

     iteration #  2     ecut=    30.00 Ry     beta= 0.70
     Davidson diagonalization with overlap

---- Real-time Memory Report at c_bands before calling an iterative solver
            71 MiB given to the printing process from OS
             0 MiB allocation reported by mallinfo(arena+hblkhd)
          4959 MiB available memory on the node where the printing process lives
------------------
     ethr =  2.30E-04,  avg # of iterations =  2.3

     total cpu time spent up to now is        9.5 secs

     total energy              =    -705.46313744 Ry
     estimated scf accuracy    <       0.01722079 Ry

     total magnetization       =     7.68 Bohr mag/cell
     absolute magnetization    =     7.69 Bohr mag/cell

     iteration #  3     ecut=    30.00 Ry     beta= 0.70
     Davidson diagonalization with overlap

---- Real-time Memory Report at c_bands before calling an iterative solver
            72 MiB given to the printing process from OS
             0 MiB allocation reported by mallinfo(arena+hblkhd)
          4957 MiB available memory on the node where the printing process lives
------------------
     c_bands:  1 eigenvalues not converged
     ethr =  4.10E-05,  avg # of iterations =  9.0

     total cpu time spent up to now is       13.7 secs

     total energy              =    -705.42274135 Ry
     estimated scf accuracy    <       0.88576496 Ry

     total magnetization       =     7.51 Bohr mag/cell
     absolute magnetization    =     7.62 Bohr mag/cell

     iteration #  4     ecut=    30.00 Ry     beta= 0.70
     Davidson diagonalization with overlap

---- Real-time Memory Report at c_bands before calling an iterative solver
            72 MiB given to the printing process from OS
             0 MiB allocation reported by mallinfo(arena+hblkhd)
          4954 MiB available memory on the node where the printing process lives
------------------
     ethr =  4.10E-05,  avg # of iterations =  9.7

     total cpu time spent up to now is       17.6 secs

     total energy              =    -705.46904519 Ry
     estimated scf accuracy    <       0.06040501 Ry

     total magnetization       =     7.74 Bohr mag/cell
     absolute magnetization    =     7.78 Bohr mag/cell

     iteration #  5     ecut=    30.00 Ry     beta= 0.70
     Davidson diagonalization with overlap

---- Real-time Memory Report at c_bands before calling an iterative solver
            73 MiB given to the printing process from OS
             0 MiB allocation reported by mallinfo(arena+hblkhd)
          4954 MiB available memory on the node where the printing process lives
------------------
     ethr =  4.10E-05,  avg # of iterations =  4.9

     total cpu time spent up to now is       20.3 secs

     total energy              =    -705.47346950 Ry
     estimated scf accuracy    <       0.00591897 Ry

     total magnetization       =     7.78 Bohr mag/cell
     absolute magnetization    =     7.83 Bohr mag/cell

     iteration #  6     ecut=    30.00 Ry     beta= 0.70
     Davidson diagonalization with overlap

---- Real-time Memory Report at c_bands before calling an iterative solver
            73 MiB given to the printing process from OS
             0 MiB allocation reported by mallinfo(arena+hblkhd)
          4951 MiB available memory on the node where the printing process lives
------------------
     ethr =  1.41E-05,  avg # of iterations =  3.5

     total cpu time spent up to now is       22.9 secs

     total energy              =    -705.47434660 Ry
     estimated scf accuracy    <       0.00040237 Ry

     total magnetization       =     7.78 Bohr mag/cell
     absolute magnetization    =     7.85 Bohr mag/cell

     iteration #  7     ecut=    30.00 Ry     beta= 0.70
     Davidson diagonalization with overlap

---- Real-time Memory Report at c_bands before calling an iterative solver
            74 MiB given to the printing process from OS
             0 MiB allocation reported by mallinfo(arena+hblkhd)
          4950 MiB available memory on the node where the printing process lives
------------------
     c_bands:  2 eigenvalues not converged
     ethr =  9.58E-07,  avg # of iterations =  7.9

     total cpu time spent up to now is       26.3 secs

     total energy              =    -705.47472281 Ry
     estimated scf accuracy    <       0.00024307 Ry

     total magnetization       =     7.80 Bohr mag/cell
     absolute magnetization    =     7.90 Bohr mag/cell

     iteration #  8     ecut=    30.00 Ry     beta= 0.70
     Davidson diagonalization with overlap

---- Real-time Memory Report at c_bands before calling an iterative solver
            74 MiB given to the printing process from OS
             0 MiB allocation reported by mallinfo(arena+hblkhd)
          4953 MiB available memory on the node where the printing process lives
------------------
     ethr =  5.79E-07,  avg # of iterations =  1.4

     total cpu time spent up to now is       28.4 secs

     total energy              =    -705.47473691 Ry
     estimated scf accuracy    <       0.00012352 Ry

     total magnetization       =     7.80 Bohr mag/cell
     absolute magnetization    =     7.91 Bohr mag/cell

     iteration #  9     ecut=    30.00 Ry     beta= 0.70
     Davidson diagonalization with overlap

---- Real-time Memory Report at c_bands before calling an iterative solver
            74 MiB given to the printing process from OS
             0 MiB allocation reported by mallinfo(arena+hblkhd)
          4952 MiB available memory on the node where the printing process lives
------------------
     ethr =  2.94E-07,  avg # of iterations =  5.3

     total cpu time spent up to now is       31.3 secs

     total energy              =    -705.47477880 Ry
     estimated scf accuracy    <       0.00002532 Ry

     total magnetization       =     7.81 Bohr mag/cell
     absolute magnetization    =     7.92 Bohr mag/cell

     iteration # 10     ecut=    30.00 Ry     beta= 0.70
     Davidson diagonalization with overlap

---- Real-time Memory Report at c_bands before calling an iterative solver
            74 MiB given to the printing process from OS
             0 MiB allocation reported by mallinfo(arena+hblkhd)
          4948 MiB available memory on the node where the printing process lives
------------------
     ethr =  6.03E-08,  avg # of iterations =  4.9

     total cpu time spent up to now is       34.1 secs

     total energy              =    -705.47479215 Ry
     estimated scf accuracy    <       0.00000680 Ry

     total magnetization       =     7.81 Bohr mag/cell
     absolute magnetization    =     7.92 Bohr mag/cell

     iteration # 11     ecut=    30.00 Ry     beta= 0.70
     Davidson diagonalization with overlap

---- Real-time Memory Report at c_bands before calling an iterative solver
            74 MiB given to the printing process from OS
             0 MiB allocation reported by mallinfo(arena+hblkhd)
          4947 MiB available memory on the node where the printing process lives
------------------
     ethr =  1.62E-08,  avg # of iterations =  6.0

     total cpu time spent up to now is       37.2 secs

     total energy              =    -705.47479845 Ry
     estimated scf accuracy    <       0.00000284 Ry

     total magnetization       =     7.81 Bohr mag/cell
     absolute magnetization    =     7.92 Bohr mag/cell

     iteration # 12     ecut=    30.00 Ry     beta= 0.70
     Davidson diagonalization with overlap

---- Real-time Memory Report at c_bands before calling an iterative solver
            74 MiB given to the printing process from OS
             0 MiB allocation reported by mallinfo(arena+hblkhd)
          4947 MiB available memory on the node where the printing process lives
------------------
     ethr =  6.77E-09,  avg # of iterations =  5.1

     total cpu time spent up to now is       40.0 secs

     total energy              =    -705.47479986 Ry
     estimated scf accuracy    <       0.00000043 Ry

     total magnetization       =     7.81 Bohr mag/cell
     absolute magnetization    =     7.92 Bohr mag/cell

     iteration # 13     ecut=    30.00 Ry     beta= 0.70
     Davidson diagonalization with overlap

---- Real-time Memory Report at c_bands before calling an iterative solver
            74 MiB given to the printing process from OS
             0 MiB allocation reported by mallinfo(arena+hblkhd)
          4947 MiB available memory on the node where the printing process lives
------------------
     ethr =  1.03E-09,  avg # of iterations =  5.9

     total cpu time spent up to now is       43.2 secs

     total energy              =    -705.47480011 Ry
     estimated scf accuracy    <       0.00000017 Ry

     total magnetization       =     7.81 Bohr mag/cell
     absolute magnetization    =     7.92 Bohr mag/cell

     iteration # 14     ecut=    30.00 Ry     beta= 0.70
     Davidson diagonalization with overlap

---- Real-time Memory Report at c_bands before calling an iterative solver
            74 MiB given to the printing process from OS
             0 MiB allocation reported by mallinfo(arena+hblkhd)
          4947 MiB available memory on the node where the printing process lives
------------------
     ethr =  4.02E-10,  avg # of iterations =  5.8

     total cpu time spent up to now is       46.0 secs

     total energy              =    -705.47480016 Ry
     estimated scf accuracy    <       0.00000021 Ry

     total magnetization       =     7.81 Bohr mag/cell
     absolute magnetization    =     7.92 Bohr mag/cell

     iteration # 15     ecut=    30.00 Ry     beta= 0.70
     Davidson diagonalization with overlap

---- Real-time Memory Report at c_bands before calling an iterative solver
            74 MiB given to the printing process from OS
             0 MiB allocation reported by mallinfo(arena+hblkhd)
          4945 MiB available memory on the node where the printing process lives
------------------
     ethr =  4.02E-10,  avg # of iterations =  3.7

     total cpu time spent up to now is       48.4 secs

     total energy              =    -705.47480020 Ry
     estimated scf accuracy    <          4.4E-09 Ry

     total magnetization       =     7.81 Bohr mag/cell
     absolute magnetization    =     7.92 Bohr mag/cell

     iteration # 16     ecut=    30.00 Ry     beta= 0.70
     Davidson diagonalization with overlap

---- Real-time Memory Report at c_bands before calling an iterative solver
            74 MiB given to the printing process from OS
             0 MiB allocation reported by mallinfo(arena+hblkhd)
          4945 MiB available memory on the node where the printing process lives
------------------
     c_bands:  1 eigenvalues not converged
     c_bands:  1 eigenvalues not converged
     c_bands:  1 eigenvalues not converged
     ethr =  1.04E-11,  avg # of iterations =  8.1

     total cpu time spent up to now is       52.3 secs

     total energy              =    -705.47480020 Ry
     estimated scf accuracy    <          2.2E-09 Ry

     total magnetization       =     7.81 Bohr mag/cell
     absolute magnetization    =     7.92 Bohr mag/cell

     iteration # 17     ecut=    30.00 Ry     beta= 0.70
     Davidson diagonalization with overlap

---- Real-time Memory Report at c_bands before calling an iterative solver
            74 MiB given to the printing process from OS
             0 MiB allocation reported by mallinfo(arena+hblkhd)
          4944 MiB available memory on the node where the printing process lives
------------------
     ethr =  5.33E-12,  avg # of iterations =  4.5

     total cpu time spent up to now is       54.8 secs

     total energy              =    -705.47480020 Ry
     estimated scf accuracy    <          2.1E-09 Ry

     total magnetization       =     7.81 Bohr mag/cell
     absolute magnetization    =     7.92 Bohr mag/cell

     iteration # 18     ecut=    30.00 Ry     beta= 0.70
     Davidson diagonalization with overlap

---- Real-time Memory Report at c_bands before calling an iterative solver
            74 MiB given to the printing process from OS
             0 MiB allocation reported by mallinfo(arena+hblkhd)
          4943 MiB available memory on the node where the printing process lives
------------------
     ethr =  5.02E-12,  avg # of iterations =  5.1

     total cpu time spent up to now is       57.5 secs

     total energy              =    -705.47480021 Ry
     estimated scf accuracy    <          2.3E-10 Ry

     total magnetization       =     7.81 Bohr mag/cell
     absolute magnetization    =     7.92 Bohr mag/cell

     iteration # 19     ecut=    30.00 Ry     beta= 0.70
     Davidson diagonalization with overlap

---- Real-time Memory Report at c_bands before calling an iterative solver
            74 MiB given to the printing process from OS
             0 MiB allocation reported by mallinfo(arena+hblkhd)
          4943 MiB available memory on the node where the printing process lives
------------------
     ethr =  5.36E-13,  avg # of iterations =  8.5

     total cpu time spent up to now is       61.2 secs

     total energy              =    -705.47480021 Ry
     estimated scf accuracy    <          1.4E-10 Ry

     total magnetization       =     7.81 Bohr mag/cell
     absolute magnetization    =     7.92 Bohr mag/cell

     iteration # 20     ecut=    30.00 Ry     beta= 0.70
     Davidson diagonalization with overlap

---- Real-time Memory Report at c_bands before calling an iterative solver
            74 MiB given to the printing process from OS
             0 MiB allocation reported by mallinfo(arena+hblkhd)
          4943 MiB available memory on the node where the printing process lives
------------------
     c_bands:  1 eigenvalues not converged
     ethr =  3.34E-13,  avg # of iterations =  5.4

     Magnetic moment per site  (integrated on atomic sphere of radius R)
     atom   1 (R=0.126)  charge= 12.9157  magn=  3.4828
     atom   2 (R=0.126)  charge= 12.9157  magn=  3.4828
     atom   3 (R=0.126)  charge=  4.1016  magn= -0.0032
     atom   4 (R=0.126)  charge=  4.1016  magn= -0.0032

     total cpu time spent up to now is       64.2 secs

     End of self-consistent calculation

 ------ SPIN UP ------------


          k = 0.0000 0.0000 0.0000 (  1617 PWs)   bands (ev):

   -74.2066 -74.2060 -42.9323 -42.9294 -42.9292 -42.9291 -42.9268 -42.9266
    -6.3618  -5.6656   1.9591   2.9521   2.9534   2.9841   3.1763   3.1773
     4.8784   4.8822   5.0481   5.0524   5.3834   7.2685   7.2698   8.3173
     8.3186

     occupation numbers 
     1.0000   1.0000   1.0000   1.0000   1.0000   1.0000   1.0000   1.0000
     1.0000   1.0000   1.0000   1.0000   1.0000   1.0000   1.0000   1.0000
     1.0000   1.0000   1.0000   1.0000   1.0000   1.0000   1.0000   0.0001
     0.0001

          k = 0.0000 0.0000 0.4899 (  1600 PWs)   bands (ev):

   -74.2062 -74.2061 -42.9318 -42.9302 -42.9301 -42.9289 -42.9273 -42.9264
    -6.1393  -5.5939   2.1662   2.5840   3.0196   3.0550   3.0831   3.2834
     4.9111   4.9129   4.9180   5.0613   5.4587   6.5940   6.8049   6.9013
     7.9817

     occupation numbers 
     1.0000   1.0000   1.0000   1.0000   1.0000   1.0000   1.0000   1.0000
     1.0000   1.0000   1.0000   1.0000   1.0000   1.0000   1.0000   1.0000
     1.0000   1.0000   1.0000   1.0000   1.0000   1.0000   1.0000   1.0000
     0.3751

          k = 0.0000 0.0000 0.9798 (  1578 PWs)   bands (ev):

   -74.2060 -74.2058 -42.9319 -42.9319 -42.9301 -42.9293 -42.9274 -42.9268
    -5.7405  -5.4647   1.9061   2.0467   3.1524   3.1816   3.4821   3.5318
     4.8761   5.0113   5.0244   5.2165   5.4551   5.5755   6.0925   6.1321
     7.3720

     occupation numbers 
     1.0000   1.0000   1.0000   1.0000   1.0000   1.0000   1.0000   1.0000
     1.0000   1.0000   1.0000   1.0000   1.0000   1.0000   1.0000   1.0000
     1.0000   1.0000   1.0000   1.0000   1.0000   1.0000   1.0000   1.0000
     1.0000

          k = 0.0000 0.4619-0.1633 (  1600 PWs)   bands (ev):

   -74.2062 -74.2061 -42.9318 -42.9299 -42.9294 -42.9290 -42.9276 -42.9271
    -6.1393  -5.5938   2.1662   2.5845   3.0203   3.0539   3.0833   3.2827
     4.9132   4.9157   4.9164   5.0581   5.4585   6.5955   6.8038   6.9020
     7.9806

     occupation numbers 
     1.0000   1.0000   1.0000   1.0000   1.0000   1.0000   1.0000   1.0000
     1.0000   1.0000   1.0000   1.0000   1.0000   1.0000   1.0000   1.0000
     1.0000   1.0000   1.0000   1.0000   1.0000   1.0000   1.0000   1.0000
     0.3795

          k = 0.0000 0.4619 0.3266 (  1598 PWs)   bands (ev):

   -74.2062 -74.2060 -42.9314 -42.9297 -42.9297 -42.9293 -42.9274 -42.9271
    -6.0662  -5.6796   2.3087   2.4830   2.9197   3.1134   3.1333   3.2365
     4.7736   4.8604   4.9972   5.0713   5.7836   6.3574   7.2342   7.3456
     7.4463

     occupation numbers 
     1.0000   1.0000   1.0000   1.0000   1.0000   1.0000   1.0000   1.0000
     1.0000   1.0000   1.0000   1.0000   1.0000   1.0000   1.0000   1.0000
     1.0000   1.0000   1.0000   1.0000   1.0000   1.0000   1.0000   1.0000
     1.0000

          k = 0.0000 0.4619 0.8165 (  1588 PWs)   bands (ev):

   -74.2061 -74.2059 -42.9313 -42.9312 -42.9299 -42.9297 -42.9276 -42.9274
    -5.7220  -5.6002   2.1733   2.1738   3.0788   3.1284   3.2644   3.3697
     4.8229   4.8619   5.1156   5.1160   5.6527   5.8576   6.2846   6.7942
     6.8701

     occupation numbers 
     1.0000   1.0000   1.0000   1.0000   1.0000   1.0000   1.0000   1.0000
     1.0000   1.0000   1.0000   1.0000   1.0000   1.0000   1.0000   1.0000
     1.0000   1.0000   1.0000   1.0000   1.0000   1.0000   1.0000   1.0000
     1.0000

          k = 0.0000 0.4619-1.1431 (  1573 PWs)   bands (ev):

   -74.2059 -74.2058 -42.9317 -42.9317 -42.9301 -42.9296 -42.9279 -42.9274
    -5.5770  -5.4621   2.1468   2.2438   2.9112   3.1186   3.3103   3.5207
     4.8866   5.0077   5.0235   5.0977   5.3482   5.4770   5.9019   6.3871
     6.4103

     occupation numbers 
     1.0000   1.0000   1.0000   1.0000   1.0000   1.0000   1.0000   1.0000
     1.0000   1.0000   1.0000   1.0000   1.0000   1.0000   1.0000   1.0000
     1.0000   1.0000   1.0000   1.0000   1.0000   1.0000   1.0000   1.0000
     1.0000

          k = 0.0000 0.4619-0.6532 (  1585 PWs)   bands (ev):

   -74.2061 -74.2058 -42.9314 -42.9307 -42.9307 -42.9294 -42.9277 -42.9273
    -5.8540  -5.4600   2.3513   2.5217   2.6752   3.0061   3.1865   3.5092
     4.8439   4.8653   5.0447   5.0866   5.4122   5.7845   6.2688   6.5043
     6.6210

     occupation numbers 
     1.0000   1.0000   1.0000   1.0000   1.0000   1.0000   1.0000   1.0000
     1.0000   1.0000   1.0000   1.0000   1.0000   1.0000   1.0000   1.0000
     1.0000   1.0000   1.0000   1.0000   1.0000   1.0000   1.0000   1.0000
     1.0000

          k = 0.0000 0.9238-0.3266 (  1578 PWs)   bands (ev):

   -74.2060 -74.2058 -42.9314 -42.9308 -42.9300 -42.9294 -42.9280 -42.9279
    -5.7405  -5.4646   1.9063   2.0471   3.1511   3.1815   3.4822   3.5310
     4.8782   5.0147   5.0224   5.2135   5.4562   5.5765   6.0933   6.1309
     7.3708

     occupation numbers 
     1.0000   1.0000   1.0000   1.0000   1.0000   1.0000   1.0000   1.0000
     1.0000   1.0000   1.0000   1.0000   1.0000   1.0000   1.0000   1.0000
     1.0000   1.0000   1.0000   1.0000   1.0000   1.0000   1.0000   1.0000
     1.0000

          k = 0.0000 0.9238 0.1633 (  1588 PWs)   bands (ev):

   -74.2061 -74.2059 -42.9308 -42.9304 -42.9299 -42.9298 -42.9281 -42.9281
    -5.7220  -5.6001   2.1736   2.1741   3.0787   3.1278   3.2639   3.3694
     4.8230   4.8628   5.1146   5.1164   5.6530   5.8586   6.2842   6.7944
     6.8693

     occupation numbers 
     1.0000   1.0000   1.0000   1.0000   1.0000   1.0000   1.0000   1.0000
     1.0000   1.0000   1.0000   1.0000   1.0000   1.0000   1.0000   1.0000
     1.0000   1.0000   1.0000   1.0000   1.0000   1.0000   1.0000   1.0000
     1.0000

          k = 0.0000 0.9238 0.6532 (  1582 PWs)   bands (ev):

   -74.2060 -74.2059 -42.9311 -42.9309 -42.9300 -42.9296 -42.9281 -42.9279
    -5.6713  -5.5386   1.8916   2.0666   3.1152   3.1908   3.4878   3.5029
     4.7603   5.0092   5.0699   5.1615   5.4709   5.8427   6.2210   6.2547
     6.9844

     occupation numbers 
     1.0000   1.0000   1.0000   1.0000   1.0000   1.0000   1.0000   1.0000
     1.0000   1.0000   1.0000   1.0000   1.0000   1.0000   1.0000   1.0000
     1.0000   1.0000   1.0000   1.0000   1.0000   1.0000   1.0000   1.0000
     1.0000

          k = 0.0000 0.9238-1.3064 (  1588 PWs)   bands (ev):

   -74.2060 -74.2059 -42.9313 -42.9311 -42.9303 -42.9297 -42.9283 -42.9282
    -5.5900  -5.4475   2.0719   2.1629   2.9621   3.2409   3.2995   3.4960
     4.8249   4.9962   5.0549   5.0846   5.3323   5.3689   5.9698   6.3013
     6.5712

     occupation numbers 
     1.0000   1.0000   1.0000   1.0000   1.0000   1.0000   1.0000   1.0000
     1.0000   1.0000   1.0000   1.0000   1.0000   1.0000   1.0000   1.0000
     1.0000   1.0000   1.0000   1.0000   1.0000   1.0000   1.0000   1.0000
     1.0000

          k = 0.0000 0.9238-0.8165 (  1573 PWs)   bands (ev):

   -74.2059 -74.2058 -42.9310 -42.9308 -42.9303 -42.9299 -42.9284 -42.9280
    -5.5771  -5.4620   2.1471   2.2442   2.9106   3.1182   3.3098   3.5205
     4.8872   5.0076   5.0247   5.0965   5.3495   5.4779   5.9012   6.3863
     6.4100

     occupation numbers 
     1.0000   1.0000   1.0000   1.0000   1.0000   1.0000   1.0000   1.0000
     1.0000   1.0000   1.0000   1.0000   1.0000   1.0000   1.0000   1.0000
     1.0000   1.0000   1.0000   1.0000   1.0000   1.0000   1.0000   1.0000
     1.0000

          k = 0.3333-0.1925-0.1361 (  1605 PWs)   bands (ev):

   -74.2063 -74.2062 -42.9314 -42.9298 -42.9294 -42.9289 -42.9269 -42.9264
    -6.2020  -5.8566   2.2012   2.7065   3.0354   3.0366   3.1281   3.1292
     4.9085   4.9123   4.9354   4.9395   5.9462   7.2288   7.5393   7.5407
     8.0832

     occupation numbers 
     1.0000   1.0000   1.0000   1.0000   1.0000   1.0000   1.0000   1.0000
     1.0000   1.0000   1.0000   1.0000   1.0000   1.0000   1.0000   1.0000
     1.0000   1.0000   1.0000   1.0000   1.0000   1.0000   1.0000   1.0000
     0.0850

          k = 0.3333-0.1925 0.3538 (  1594 PWs)   bands (ev):

   -74.2063 -74.2059 -42.9316 -42.9301 -42.9299 -42.9293 -42.9269 -42.9268
    -6.1058  -5.6340   2.2937   2.5393   2.9023   3.0886   3.1050   3.2654
     4.7949   4.9140   4.9852   5.0551   5.6640   6.3406   7.2396   7.2590
     7.5586

     occupation numbers 
     1.0000   1.0000   1.0000   1.0000   1.0000   1.0000   1.0000   1.0000
     1.0000   1.0000   1.0000   1.0000   1.0000   1.0000   1.0000   1.0000
     1.0000   1.0000   1.0000   1.0000   1.0000   1.0000   1.0000   1.0000
     1.0000

          k = 0.3333-0.1925 0.8437 (  1583 PWs)   bands (ev):

   -74.2060 -74.2058 -42.9316 -42.9314 -42.9307 -42.9297 -42.9273 -42.9270
    -5.7408  -5.4705   2.1817   2.2467   3.0137   3.1267   3.2134   3.4251
     4.8177   4.8622   5.0533   5.1163   5.4704   5.8121   5.9918   6.4979
     6.9690

     occupation numbers 
     1.0000   1.0000   1.0000   1.0000   1.0000   1.0000   1.0000   1.0000
     1.0000   1.0000   1.0000   1.0000   1.0000   1.0000   1.0000   1.0000
     1.0000   1.0000   1.0000   1.0000   1.0000   1.0000   1.0000   1.0000
     1.0000

          k = 0.3333-0.1925-1.1159 (  1581 PWs)   bands (ev):

   -74.2059 -74.2059 -42.9318 -42.9315 -42.9300 -42.9299 -42.9274 -42.9269
    -5.6095  -5.6043   1.9773   2.1712   2.9905   3.2472   3.4071   3.4109
     4.7510   5.0134   5.0319   5.1862   5.4542   5.9594   6.3753   6.4371
     6.5815

     occupation numbers 
     1.0000   1.0000   1.0000   1.0000   1.0000   1.0000   1.0000   1.0000
     1.0000   1.0000   1.0000   1.0000   1.0000   1.0000   1.0000   1.0000
     1.0000   1.0000   1.0000   1.0000   1.0000   1.0000   1.0000   1.0000
     1.0000

          k = 0.3333-0.1925-0.6260 (  1602 PWs)   bands (ev):

   -74.2062 -74.2061 -42.9310 -42.9308 -42.9297 -42.9296 -42.9271 -42.9266
    -5.9154  -5.8415   2.2494   2.3853   3.0388   3.1449   3.1742   3.2063
     4.7508   4.8403   5.0261   5.0632   6.3548   6.4144   6.8440   6.9909
     7.1383

     occupation numbers 
     1.0000   1.0000   1.0000   1.0000   1.0000   1.0000   1.0000   1.0000
     1.0000   1.0000   1.0000   1.0000   1.0000   1.0000   1.0000   1.0000
     1.0000   1.0000   1.0000   1.0000   1.0000   1.0000   1.0000   1.0000
     1.0000

          k = 0.3333 0.2694-0.2994 (  1594 PWs)   bands (ev):

   -74.2063 -74.2059 -42.9315 -42.9297 -42.9296 -42.9293 -42.9274 -42.9271
    -6.1058  -5.6340   2.2938   2.5401   2.9027   3.0877   3.1049   3.2645
     4.7976   4.9112   4.9823   5.0583   5.6641   6.3418   7.2383   7.2603
     7.5575

     occupation numbers 
     1.0000   1.0000   1.0000   1.0000   1.0000   1.0000   1.0000   1.0000
     1.0000   1.0000   1.0000   1.0000   1.0000   1.0000   1.0000   1.0000
     1.0000   1.0000   1.0000   1.0000   1.0000   1.0000   1.0000   1.0000
     1.0000

          k = 0.3333 0.2694 0.1905 (  1598 PWs)   bands (ev):

   -74.2063 -74.2060 -42.9319 -42.9298 -42.9294 -42.9290 -42.9275 -42.9271
    -6.1560  -5.5739   2.1889   2.6098   2.9833   3.0485   3.0718   3.2964
     4.8877   4.9340   4.9348   5.0495   5.4008   6.5205   6.8639   6.9932
     7.9328

     occupation numbers 
     1.0000   1.0000   1.0000   1.0000   1.0000   1.0000   1.0000   1.0000
     1.0000   1.0000   1.0000   1.0000   1.0000   1.0000   1.0000   1.0000
     1.0000   1.0000   1.0000   1.0000   1.0000   1.0000   1.0000   1.0000
     0.5754

          k = 0.3333 0.2694 0.6804 (  1583 PWs)   bands (ev):

   -74.2062 -74.2057 -42.9313 -42.9308 -42.9305 -42.9294 -42.9276 -42.9274
    -5.8502  -5.4644   2.3389   2.4796   2.7262   3.0084   3.1887   3.5087
     4.8281   4.8990   5.0473   5.0622   5.4461   5.8071   6.2371   6.5326
     6.6346

     occupation numbers 
     1.0000   1.0000   1.0000   1.0000   1.0000   1.0000   1.0000   1.0000
     1.0000   1.0000   1.0000   1.0000   1.0000   1.0000   1.0000   1.0000
     1.0000   1.0000   1.0000   1.0000   1.0000   1.0000   1.0000   1.0000
     1.0000

          k = 0.3333 0.2694-1.2792 (  1576 PWs)   bands (ev):

   -74.2059 -74.2058 -42.9319 -42.9316 -42.9300 -42.9296 -42.9280 -42.9274
    -5.5842  -5.4539   2.1096   2.1996   2.9434   3.1825   3.2950   3.5180
     4.8682   5.0036   5.0307   5.1165   5.3440   5.4196   5.9424   6.3688
     6.4811

     occupation numbers 
     1.0000   1.0000   1.0000   1.0000   1.0000   1.0000   1.0000   1.0000
     1.0000   1.0000   1.0000   1.0000   1.0000   1.0000   1.0000   1.0000
     1.0000   1.0000   1.0000   1.0000   1.0000   1.0000   1.0000   1.0000
     1.0000

          k = 0.3333 0.2694-0.7893 (  1589 PWs)   bands (ev):

   -74.2061 -74.2059 -42.9314 -42.9312 -42.9300 -42.9296 -42.9277 -42.9274
    -5.7591  -5.5617   2.1993   2.2080   3.0291   3.1069   3.2444   3.4092
     4.8104   4.8880   5.0931   5.0992   5.6165   5.9327   6.0977   6.7396
     6.8547

     occupation numbers 
     1.0000   1.0000   1.0000   1.0000   1.0000   1.0000   1.0000   1.0000
     1.0000   1.0000   1.0000   1.0000   1.0000   1.0000   1.0000   1.0000
     1.0000   1.0000   1.0000   1.0000   1.0000   1.0000   1.0000   1.0000
     1.0000

          k = 0.3333 0.7313-0.4627 (  1583 PWs)   bands (ev):

   -74.2060 -74.2058 -42.9310 -42.9304 -42.9303 -42.9297 -42.9283 -42.9280
    -5.7408  -5.4705   2.1821   2.2469   3.0140   3.1267   3.2121   3.4240
     4.8195   4.8651   5.0509   5.1140   5.4716   5.8130   5.9930   6.4965
     6.9677

     occupation numbers 
     1.0000   1.0000   1.0000   1.0000   1.0000   1.0000   1.0000   1.0000
     1.0000   1.0000   1.0000   1.0000   1.0000   1.0000   1.0000   1.0000
     1.0000   1.0000   1.0000   1.0000   1.0000   1.0000   1.0000   1.0000
     1.0000

          k = 0.3333 0.7313 0.0272 (  1583 PWs)   bands (ev):

   -74.2062 -74.2057 -42.9312 -42.9299 -42.9299 -42.9293 -42.9284 -42.9283
    -5.8502  -5.4643   2.3393   2.4797   2.7261   3.0073   3.1889   3.5086
     4.8302   4.8997   5.0467   5.0608   5.4443   5.8080   6.2385   6.5330
     6.6330

     occupation numbers 
     1.0000   1.0000   1.0000   1.0000   1.0000   1.0000   1.0000   1.0000
     1.0000   1.0000   1.0000   1.0000   1.0000   1.0000   1.0000   1.0000
     1.0000   1.0000   1.0000   1.0000   1.0000   1.0000   1.0000   1.0000
     1.0000

          k = 0.3333 0.7313 0.5171 (  1587 PWs)   bands (ev):

   -74.2060 -74.2059 -42.9309 -42.9306 -42.9303 -42.9299 -42.9282 -42.9281
    -5.6979  -5.5169   2.1377   2.3389   2.8584   3.2011   3.2761   3.3561
     4.7987   4.8710   5.0265   5.1248   5.5038   5.8963   6.1265   6.7073
     6.7617

     occupation numbers 
     1.0000   1.0000   1.0000   1.0000   1.0000   1.0000   1.0000   1.0000
     1.0000   1.0000   1.0000   1.0000   1.0000   1.0000   1.0000   1.0000
     1.0000   1.0000   1.0000   1.0000   1.0000   1.0000   1.0000   1.0000
     1.0000

          k = 0.3333 0.7313-1.4425 (  1573 PWs)   bands (ev):

   -74.2059 -74.2058 -42.9312 -42.9308 -42.9299 -42.9297 -42.9285 -42.9282
    -5.5565  -5.4851   2.2594   2.3555   2.8119   2.9672   3.3410   3.5020
     4.9349   4.9400   5.0200   5.0446   5.4625   5.5490   5.8538   6.1556
     6.5429

     occupation numbers 
     1.0000   1.0000   1.0000   1.0000   1.0000   1.0000   1.0000   1.0000
     1.0000   1.0000   1.0000   1.0000   1.0000   1.0000   1.0000   1.0000
     1.0000   1.0000   1.0000   1.0000   1.0000   1.0000   1.0000   1.0000
     1.0000

          k = 0.3333 0.7313-0.9526 (  1579 PWs)   bands (ev):

   -74.2059 -74.2059 -42.9311 -42.9308 -42.9300 -42.9300 -42.9285 -42.9283
    -5.5291  -5.5142   2.3776   2.4104   2.7696   2.8146   3.4040   3.4416
     4.9084   4.9137   5.0157   5.0161   5.5814   5.5920   5.8581   5.9378
     6.7065

     occupation numbers 
     1.0000   1.0000   1.0000   1.0000   1.0000   1.0000   1.0000   1.0000
     1.0000   1.0000   1.0000   1.0000   1.0000   1.0000   1.0000   1.0000
     1.0000   1.0000   1.0000   1.0000   1.0000   1.0000   1.0000   1.0000
     1.0000

          k = 0.3333-1.1162 0.1905 (  1581 PWs)   bands (ev):

   -74.2059 -74.2059 -42.9309 -42.9309 -42.9299 -42.9299 -42.9280 -42.9280
    -5.6096  -5.6043   1.9776   2.1716   2.9904   3.2459   3.4070   3.4100
     4.7533   5.0112   5.0350   5.1834   5.4557   5.9611   6.3741   6.4371
     6.5818

     occupation numbers 
     1.0000   1.0000   1.0000   1.0000   1.0000   1.0000   1.0000   1.0000
     1.0000   1.0000   1.0000   1.0000   1.0000   1.0000   1.0000   1.0000
     1.0000   1.0000   1.0000   1.0000   1.0000   1.0000   1.0000   1.0000
     1.0000

          k = 0.3333-1.1162 0.6804 (  1576 PWs)   bands (ev):

   -74.2059 -74.2058 -42.9313 -42.9310 -42.9301 -42.9296 -42.9284 -42.9282
    -5.5842  -5.4539   2.1099   2.1998   2.9422   3.1822   3.2950   3.5181
     4.8687   5.0037   5.0332   5.1144   5.3449   5.4194   5.9427   6.3686
     6.4797

     occupation numbers 
     1.0000   1.0000   1.0000   1.0000   1.0000   1.0000   1.0000   1.0000
     1.0000   1.0000   1.0000   1.0000   1.0000   1.0000   1.0000   1.0000
     1.0000   1.0000   1.0000   1.0000   1.0000   1.0000   1.0000   1.0000
     1.0000

          k = 0.3333-1.1162 1.1703 (  1573 PWs)   bands (ev):

   -74.2059 -74.2058 -42.9308 -42.9308 -42.9303 -42.9301 -42.9284 -42.9280
    -5.5565  -5.4852   2.2594   2.3557   2.8124   2.9669   3.3405   3.5017
     4.9359   4.9382   5.0201   5.0449   5.4633   5.5505   5.8528   6.1559
     6.5425

     occupation numbers 
     1.0000   1.0000   1.0000   1.0000   1.0000   1.0000   1.0000   1.0000
     1.0000   1.0000   1.0000   1.0000   1.0000   1.0000   1.0000   1.0000
     1.0000   1.0000   1.0000   1.0000   1.0000   1.0000   1.0000   1.0000
     1.0000

          k = 0.3333-1.1162-0.7893 (  1577 PWs)   bands (ev):

   -74.2060 -74.2058 -42.9313 -42.9306 -42.9302 -42.9294 -42.9282 -42.9278
    -5.7596  -5.4459   2.0035   2.1083   3.1597   3.1647   3.3536   3.5099
     4.8653   4.9580   5.0649   5.1401   5.3572   5.6729   6.0241   6.2064
     7.2892

     occupation numbers 
     1.0000   1.0000   1.0000   1.0000   1.0000   1.0000   1.0000   1.0000
     1.0000   1.0000   1.0000   1.0000   1.0000   1.0000   1.0000   1.0000
     1.0000   1.0000   1.0000   1.0000   1.0000   1.0000   1.0000   1.0000
     1.0000

          k = 0.3333-1.1162-0.2994 (  1580 PWs)   bands (ev):

   -74.2060 -74.2058 -42.9310 -42.9301 -42.9299 -42.9296 -42.9282 -42.9281
    -5.7911  -5.5275   2.2387   2.2604   2.9656   3.0866   3.2365   3.4424
     4.8327   4.9132   5.0595   5.0983   5.5913   5.9562   6.0304   6.6736
     6.8267

     occupation numbers 
     1.0000   1.0000   1.0000   1.0000   1.0000   1.0000   1.0000   1.0000
     1.0000   1.0000   1.0000   1.0000   1.0000   1.0000   1.0000   1.0000
     1.0000   1.0000   1.0000   1.0000   1.0000   1.0000   1.0000   1.0000
     1.0000

          k = 0.3333-0.6543 0.0272 (  1602 PWs)   bands (ev):

   -74.2062 -74.2061 -42.9309 -42.9305 -42.9296 -42.9294 -42.9273 -42.9272
    -5.9155  -5.8415   2.2497   2.3856   3.0390   3.1438   3.1745   3.2055
     4.7534   4.8377   5.0297   5.0601   6.3549   6.4147   6.8445   6.9898
     7.1395

     occupation numbers 
     1.0000   1.0000   1.0000   1.0000   1.0000   1.0000   1.0000   1.0000
     1.0000   1.0000   1.0000   1.0000   1.0000   1.0000   1.0000   1.0000
     1.0000   1.0000   1.0000   1.0000   1.0000   1.0000   1.0000   1.0000
     1.0000

          k = 0.3333-0.6543 0.5171 (  1589 PWs)   bands (ev):

   -74.2061 -74.2059 -42.9314 -42.9310 -42.9302 -42.9297 -42.9275 -42.9274
    -5.7592  -5.5617   2.1993   2.2081   3.0291   3.1066   3.2444   3.4095
     4.8087   4.8902   5.0899   5.1020   5.6161   5.9334   6.0972   6.7407
     6.8540

     occupation numbers 
     1.0000   1.0000   1.0000   1.0000   1.0000   1.0000   1.0000   1.0000
     1.0000   1.0000   1.0000   1.0000   1.0000   1.0000   1.0000   1.0000
     1.0000   1.0000   1.0000   1.0000   1.0000   1.0000   1.0000   1.0000
     1.0000

          k = 0.3333-0.6543 1.0070 (  1579 PWs)   bands (ev):

   -74.2059 -74.2059 -42.9315 -42.9314 -42.9303 -42.9302 -42.9277 -42.9276
    -5.5291  -5.5142   2.3773   2.4102   2.7702   2.8148   3.4042   3.4418
     4.9067   4.9145   5.0150   5.0151   5.5820   5.5931   5.8584   5.9385
     6.7060

     occupation numbers 
     1.0000   1.0000   1.0000   1.0000   1.0000   1.0000   1.0000   1.0000
     1.0000   1.0000   1.0000   1.0000   1.0000   1.0000   1.0000   1.0000
     1.0000   1.0000   1.0000   1.0000   1.0000   1.0000   1.0000   1.0000
     1.0000

          k = 0.3333-0.6543-0.9526 (  1580 PWs)   bands (ev):

   -74.2060 -74.2058 -42.9314 -42.9308 -42.9303 -42.9296 -42.9275 -42.9274
    -5.7911  -5.5275   2.2383   2.2602   2.9657   3.0872   3.2366   3.4428
     4.8302   4.9151   5.0571   5.1007   5.5912   5.9558   6.0301   6.6741
     6.8273

     occupation numbers 
     1.0000   1.0000   1.0000   1.0000   1.0000   1.0000   1.0000   1.0000
     1.0000   1.0000   1.0000   1.0000   1.0000   1.0000   1.0000   1.0000
     1.0000   1.0000   1.0000   1.0000   1.0000   1.0000   1.0000   1.0000
     1.0000

          k = 0.3333-0.6543-0.4627 (  1599 PWs)   bands (ev):

   -74.2062 -74.2061 -42.9311 -42.9301 -42.9297 -42.9293 -42.9274 -42.9272
    -5.9741  -5.7801   2.2057   2.4227   3.0577   3.1202   3.1584   3.2303
     4.7686   4.8583   5.0372   5.0830   6.1142   6.5234   6.9106   7.0228
     7.1110

     occupation numbers 
     1.0000   1.0000   1.0000   1.0000   1.0000   1.0000   1.0000   1.0000
     1.0000   1.0000   1.0000   1.0000   1.0000   1.0000   1.0000   1.0000
     1.0000   1.0000   1.0000   1.0000   1.0000   1.0000   1.0000   1.0000
     1.0000

 ------ SPIN DOWN ----------


          k = 0.0000 0.0000 0.0000 (  1617 PWs)   bands (ev):

   -70.3045 -70.3039 -39.1863 -39.1817 -39.0334 -39.0329 -39.0314 -39.0309
    -6.2427  -5.5825   2.2681   4.0290   4.1299   4.1314   4.2373   4.2388
     8.2500   8.4227   8.4246   8.5770   8.5792   9.6390   9.6412   9.7165
    10.4578

     occupation numbers 
     1.0000   1.0000   1.0000   1.0000   1.0000   1.0000   1.0000   1.0000
     1.0000   1.0000   1.0000   1.0000   1.0000   1.0000   1.0000   1.0000
     0.0009   0.0000   0.0000   0.0000   0.0000   0.0000   0.0000   0.0000
     0.0000

          k = 0.0000 0.0000 0.4899 (  1600 PWs)   bands (ev):

   -70.3042 -70.3040 -39.1855 -39.1818 -39.0346 -39.0342 -39.0319 -39.0308
    -6.0320  -5.5153   2.5632   3.4078   3.8175   4.0943   4.1784   4.2050
     7.8874   8.3820   8.3949   8.4140   8.5976   9.4361   9.5139   9.5606
    10.2596

     occupation numbers 
     1.0000   1.0000   1.0000   1.0000   1.0000   1.0000   1.0000   1.0000
     1.0000   1.0000   1.0000   1.0000   1.0000   1.0000   1.0000   1.0000
     0.7462   0.0000   0.0000   0.0000   0.0000   0.0000   0.0000   0.0000
     0.0000

          k = 0.0000 0.0000 0.9798 (  1578 PWs)   bands (ev):

   -70.3040 -70.3037 -39.1843 -39.1825 -39.0367 -39.0361 -39.0323 -39.0313
    -5.6550  -5.3950   2.4708   2.4920   3.9691   4.1494   4.1626   4.2274
     7.4292   8.4230   8.4773   8.5110   8.5951   8.8097   9.0683   9.1313
     9.6590

     occupation numbers 
     1.0000   1.0000   1.0000   1.0000   1.0000   1.0000   1.0000   1.0000
     1.0000   1.0000   1.0000   1.0000   1.0000   1.0000   1.0000   1.0000
     1.0000   0.0000   0.0000   0.0000   0.0000   0.0000   0.0000   0.0000
     0.0000

          k = 0.0000 0.4619-0.1633 (  1600 PWs)   bands (ev):

   -70.3042 -70.3040 -39.1855 -39.1818 -39.0342 -39.0334 -39.0324 -39.0316
    -6.0320  -5.5153   2.5631   3.4077   3.8169   4.0932   4.1795   4.2060
     7.8854   8.3803   8.3965   8.4142   8.5995   9.4379   9.5124   9.5611
    10.2568

     occupation numbers 
     1.0000   1.0000   1.0000   1.0000   1.0000   1.0000   1.0000   1.0000
     1.0000   1.0000   1.0000   1.0000   1.0000   1.0000   1.0000   1.0000
     0.7528   0.0000   0.0000   0.0000   0.0000   0.0000   0.0000   0.0000
     0.0000

          k = 0.0000 0.4619 0.3266 (  1598 PWs)   bands (ev):

   -70.3042 -70.3040 -39.1850 -39.1824 -39.0340 -39.0336 -39.0322 -39.0318
    -5.9626  -5.5964   2.7290   3.3394   3.7084   4.0710   4.1323   4.2631
     8.0345   8.1888   8.2322   8.6046   8.7343   9.2412   9.7933   9.9293
     9.9816

     occupation numbers 
     1.0000   1.0000   1.0000   1.0000   1.0000   1.0000   1.0000   1.0000
     1.0000   1.0000   1.0000   1.0000   1.0000   1.0000   1.0000   1.0000
     0.1932   0.0067   0.0017   0.0000   0.0000   0.0000   0.0000   0.0000
     0.0000

          k = 0.0000 0.4619 0.8165 (  1588 PWs)   bands (ev):

   -70.3040 -70.3039 -39.1839 -39.1832 -39.0356 -39.0353 -39.0325 -39.0321
    -5.6374  -5.5223   2.7213   2.7524   3.7664   3.9802   4.1120   4.1468
     7.8021   7.9145   8.3576   8.7121   8.7260   8.8225   9.1186   9.3254
     9.6913

     occupation numbers 
     1.0000   1.0000   1.0000   1.0000   1.0000   1.0000   1.0000   1.0000
     1.0000   1.0000   1.0000   1.0000   1.0000   1.0000   1.0000   1.0000
     0.9393   0.6482   0.0000   0.0000   0.0000   0.0000   0.0000   0.0000
     0.0000

          k = 0.0000 0.4619-1.1431 (  1573 PWs)   bands (ev):

   -70.3038 -70.3038 -39.1838 -39.1829 -39.0366 -39.0362 -39.0330 -39.0323
    -5.5009  -5.3926   2.6392   2.7212   3.6457   3.6800   4.0698   4.1902
     7.4863   7.9899   8.2528   8.4035   8.6570   8.7386   9.0825   9.3342
     9.4491

     occupation numbers 
     1.0000   1.0000   1.0000   1.0000   1.0000   1.0000   1.0000   1.0000
     1.0000   1.0000   1.0000   1.0000   1.0000   1.0000   1.0000   1.0000
     1.0000   0.3435   0.0009   0.0000   0.0000   0.0000   0.0000   0.0000
     0.0000

          k = 0.0000 0.4619-0.6532 (  1585 PWs)   bands (ev):

   -70.3040 -70.3038 -39.1848 -39.1822 -39.0356 -39.0354 -39.0326 -39.0320
    -5.7622  -5.3901   2.9863   2.9931   3.2709   3.8443   4.0769   4.1988
     7.4910   8.1660   8.1747   8.5831   8.7792   8.9014   9.0508   9.4311
     9.6319

     occupation numbers 
     1.0000   1.0000   1.0000   1.0000   1.0000   1.0000   1.0000   1.0000
     1.0000   1.0000   1.0000   1.0000   1.0000   1.0000   1.0000   1.0000
     1.0000   0.0127   0.0101   0.0000   0.0000   0.0000   0.0000   0.0000
     0.0000

          k = 0.0000 0.9238-0.3266 (  1578 PWs)   bands (ev):

   -70.3040 -70.3037 -39.1843 -39.1826 -39.0354 -39.0352 -39.0332 -39.0326
    -5.6550  -5.3951   2.4706   2.4916   3.9695   4.1483   4.1634   4.2283
     7.4257   8.4233   8.4756   8.5127   8.5955   8.8118   9.0690   9.1331
     9.6570

     occupation numbers 
     1.0000   1.0000   1.0000   1.0000   1.0000   1.0000   1.0000   1.0000
     1.0000   1.0000   1.0000   1.0000   1.0000   1.0000   1.0000   1.0000
     1.0000   0.0000   0.0000   0.0000   0.0000   0.0000   0.0000   0.0000
     0.0000

          k = 0.0000 0.9238 0.1633 (  1588 PWs)   bands (ev):

   -70.3040 -70.3039 -39.1839 -39.1832 -39.0344 -39.0342 -39.0335 -39.0335
    -5.6374  -5.5223   2.7208   2.7522   3.7667   3.9801   4.1122   4.1475
     7.7995   7.9146   8.3587   8.7115   8.7269   8.8235   9.1198   9.3255
     9.6912

     occupation numbers 
     1.0000   1.0000   1.0000   1.0000   1.0000   1.0000   1.0000   1.0000
     1.0000   1.0000   1.0000   1.0000   1.0000   1.0000   1.0000   1.0000
     0.9425   0.6479   0.0000   0.0000   0.0000   0.0000   0.0000   0.0000
     0.0000

          k = 0.0000 0.9238 0.6532 (  1582 PWs)   bands (ev):

   -70.3039 -70.3038 -39.1839 -39.1830 -39.0355 -39.0351 -39.0332 -39.0326
    -5.5896  -5.4648   2.4598   2.5148   3.9984   4.0948   4.1504   4.2459
     7.4553   8.3442   8.4469   8.6407   8.8056   8.8903   8.9578   9.0633
     9.3823

     occupation numbers 
     1.0000   1.0000   1.0000   1.0000   1.0000   1.0000   1.0000   1.0000
     1.0000   1.0000   1.0000   1.0000   1.0000   1.0000   1.0000   1.0000
     1.0000   0.0000   0.0000   0.0000   0.0000   0.0000   0.0000   0.0000
     0.0000

          k = 0.0000 0.9238-1.3064 (  1588 PWs)   bands (ev):

   -70.3039 -70.3038 -39.1840 -39.1829 -39.0356 -39.0356 -39.0337 -39.0334
    -5.5130  -5.3789   2.5441   2.6566   3.6590   3.8416   4.1333   4.1509
     7.4437   8.0569   8.3796   8.4091   8.5323   8.6336   9.1892   9.2488
     9.4125

     occupation numbers 
     1.0000   1.0000   1.0000   1.0000   1.0000   1.0000   1.0000   1.0000
     1.0000   1.0000   1.0000   1.0000   1.0000   1.0000   1.0000   1.0000
     1.0000   0.1358   0.0000   0.0000   0.0000   0.0000   0.0000   0.0000
     0.0000

          k = 0.0000 0.9238-0.8165 (  1573 PWs)   bands (ev):

   -70.3038 -70.3038 -39.1838 -39.1829 -39.0356 -39.0354 -39.0338 -39.0332
    -5.5009  -5.3926   2.6389   2.7206   3.6464   3.6801   4.0701   4.1902
     7.4842   7.9903   8.2526   8.4033   8.6569   8.7398   9.0844   9.3341
     9.4491

     occupation numbers 
     1.0000   1.0000   1.0000   1.0000   1.0000   1.0000   1.0000   1.0000
     1.0000   1.0000   1.0000   1.0000   1.0000   1.0000   1.0000   1.0000
     1.0000   0.3420   0.0009   0.0000   0.0000   0.0000   0.0000   0.0000
     0.0000

          k = 0.3333-0.1925-0.1361 (  1605 PWs)   bands (ev):

   -70.3042 -70.3041 -39.1851 -39.1827 -39.0334 -39.0328 -39.0313 -39.0308
    -6.0910  -5.7632   2.6553   3.5140   4.1690   4.1704   4.2151   4.2165
     8.4017   8.4037   8.4134   8.4155   8.6992   9.6134   9.9678   9.9702
    10.4781

     occupation numbers 
     1.0000   1.0000   1.0000   1.0000   1.0000   1.0000   1.0000   1.0000
     1.0000   1.0000   1.0000   1.0000   1.0000   1.0000   1.0000   1.0000
     0.0000   0.0000   0.0000   0.0000   0.0000   0.0000   0.0000   0.0000
     0.0000

          k = 0.3333-0.1925 0.3538 (  1594 PWs)   bands (ev):

   -70.3042 -70.3039 -39.1852 -39.1821 -39.0347 -39.0340 -39.0315 -39.0313
    -6.0002  -5.5534   2.6711   3.4324   3.6897   4.0546   4.1316   4.2608
     8.0681   8.0975   8.2933   8.5768   8.7312   9.2390   9.8576   9.8942
    10.0126

     occupation numbers 
     1.0000   1.0000   1.0000   1.0000   1.0000   1.0000   1.0000   1.0000
     1.0000   1.0000   1.0000   1.0000   1.0000   1.0000   1.0000   1.0000
     0.1120   0.0641   0.0002   0.0000   0.0000   0.0000   0.0000   0.0000
     0.0000

          k = 0.3333-0.1925 0.8437 (  1583 PWs)   bands (ev):

   -70.3040 -70.3038 -39.1843 -39.1826 -39.0365 -39.0363 -39.0321 -39.0316
    -5.6553  -5.4003   2.7435   2.8290   3.3685   3.9366   4.1756   4.2088
     7.5258   8.0031   8.4820   8.5112   8.6983   8.7049   9.2154   9.4150
     9.5027

     occupation numbers 
     1.0000   1.0000   1.0000   1.0000   1.0000   1.0000   1.0000   1.0000
     1.0000   1.0000   1.0000   1.0000   1.0000   1.0000   1.0000   1.0000
     1.0000   0.2946   0.0000   0.0000   0.0000   0.0000   0.0000   0.0000
     0.0000

          k = 0.3333-0.1925-1.1159 (  1581 PWs)   bands (ev):

   -70.3039 -70.3038 -39.1835 -39.1834 -39.0367 -39.0360 -39.0322 -39.0315
    -5.5312  -5.5267   2.5602   2.6221   3.7666   4.0352   4.1477   4.2455
     7.5425   8.0840   8.4295   8.6598   8.8319   8.8706   9.1551   9.2114
     9.2705

     occupation numbers 
     1.0000   1.0000   1.0000   1.0000   1.0000   1.0000   1.0000   1.0000
     1.0000   1.0000   1.0000   1.0000   1.0000   1.0000   1.0000   1.0000
     1.0000   0.0836   0.0000   0.0000   0.0000   0.0000   0.0000   0.0000
     0.0000

          k = 0.3333-0.1925-0.6260 (  1602 PWs)   bands (ev):

   -70.3041 -70.3041 -39.1840 -39.1835 -39.0346 -39.0342 -39.0317 -39.0310
    -5.8196  -5.7497   2.8977   3.0107   3.9153   4.0549   4.1469   4.2476
     7.9096   8.2030   8.5472   8.6870   8.9597   9.0125   9.4538   9.5491
     9.8978

     occupation numbers 
     1.0000   1.0000   1.0000   1.0000   1.0000   1.0000   1.0000   1.0000
     1.0000   1.0000   1.0000   1.0000   1.0000   1.0000   1.0000   1.0000
     0.6671   0.0044   0.0000   0.0000   0.0000   0.0000   0.0000   0.0000
     0.0000

          k = 0.3333 0.2694-0.2994 (  1594 PWs)   bands (ev):

   -70.3042 -70.3039 -39.1852 -39.1821 -39.0340 -39.0335 -39.0322 -39.0318
    -6.0002  -5.5534   2.6711   3.4309   3.6888   4.0555   4.1326   4.2618
     8.0667   8.0954   8.2951   8.5783   8.7304   9.2381   9.8601   9.8960
    10.0151

     occupation numbers 
     1.0000   1.0000   1.0000   1.0000   1.0000   1.0000   1.0000   1.0000
     1.0000   1.0000   1.0000   1.0000   1.0000   1.0000   1.0000   1.0000
     0.1148   0.0669   0.0002   0.0000   0.0000   0.0000   0.0000   0.0000
     0.0000

          k = 0.3333 0.2694 0.1905 (  1598 PWs)   bands (ev):

   -70.3042 -70.3039 -39.1858 -39.1818 -39.0341 -39.0334 -39.0323 -39.0316
    -6.0478  -5.4966   2.5519   3.4687   3.7701   4.0831   4.1654   4.2217
     7.8580   8.3291   8.4438   8.4545   8.5523   9.4444   9.5187   9.6167
    10.3016

     occupation numbers 
     1.0000   1.0000   1.0000   1.0000   1.0000   1.0000   1.0000   1.0000
     1.0000   1.0000   1.0000   1.0000   1.0000   1.0000   1.0000   1.0000
     0.8333   0.0000   0.0000   0.0000   0.0000   0.0000   0.0000   0.0000
     0.0000

          k = 0.3333 0.2694 0.6804 (  1583 PWs)   bands (ev):

   -70.3041 -70.3037 -39.1847 -39.1823 -39.0355 -39.0354 -39.0326 -39.0321
    -5.7585  -5.3942   2.9646   2.9723   3.3089   3.8559   4.0814   4.1934
     7.5191   8.1437   8.1863   8.5693   8.7977   8.8896   9.0700   9.4224
     9.6544

     occupation numbers 
     1.0000   1.0000   1.0000   1.0000   1.0000   1.0000   1.0000   1.0000
     1.0000   1.0000   1.0000   1.0000   1.0000   1.0000   1.0000   1.0000
     1.0000   0.0227   0.0073   0.0000   0.0000   0.0000   0.0000   0.0000
     0.0000

          k = 0.3333 0.2694-1.2792 (  1576 PWs)   bands (ev):

   -70.3039 -70.3037 -39.1838 -39.1829 -39.0366 -39.0361 -39.0331 -39.0323
    -5.5076  -5.3850   2.5873   2.6881   3.6581   3.7605   4.0999   4.1745
     7.4725   8.0223   8.3198   8.4048   8.6292   8.6737   9.1246   9.3662
     9.3825

     occupation numbers 
     1.0000   1.0000   1.0000   1.0000   1.0000   1.0000   1.0000   1.0000
     1.0000   1.0000   1.0000   1.0000   1.0000   1.0000   1.0000   1.0000
     1.0000   0.2298   0.0001   0.0000   0.0000   0.0000   0.0000   0.0000
     0.0000

          k = 0.3333 0.2694-0.7893 (  1589 PWs)   bands (ev):

   -70.3041 -70.3038 -39.1842 -39.1830 -39.0356 -39.0353 -39.0326 -39.0321
    -5.6724  -5.4861   2.7449   2.7906   3.6769   4.0055   4.1030   4.1393
     7.7544   7.9550   8.2632   8.6823   8.7860   8.8450   9.0689   9.3815
     9.6885

     occupation numbers 
     1.0000   1.0000   1.0000   1.0000   1.0000   1.0000   1.0000   1.0000
     1.0000   1.0000   1.0000   1.0000   1.0000   1.0000   1.0000   1.0000
     0.9796   0.4839   0.0006   0.0000   0.0000   0.0000   0.0000   0.0000
     0.0000

          k = 0.3333 0.7313-0.4627 (  1583 PWs)   bands (ev):

   -70.3040 -70.3038 -39.1843 -39.1826 -39.0354 -39.0352 -39.0332 -39.0328
    -5.6554  -5.4003   2.7430   2.8284   3.3686   3.9363   4.1764   4.2096
     7.5239   8.0009   8.4818   8.5132   8.6993   8.7065   9.2147   9.4170
     9.5053

     occupation numbers 
     1.0000   1.0000   1.0000   1.0000   1.0000   1.0000   1.0000   1.0000
     1.0000   1.0000   1.0000   1.0000   1.0000   1.0000   1.0000   1.0000
     1.0000   0.3025   0.0000   0.0000   0.0000   0.0000   0.0000   0.0000
     0.0000

          k = 0.3333 0.7313 0.0272 (  1583 PWs)   bands (ev):

   -70.3041 -70.3037 -39.1847 -39.1823 -39.0344 -39.0340 -39.0336 -39.0335
    -5.7585  -5.3943   2.9644   2.9719   3.3087   3.8569   4.0821   4.1925
     7.5169   8.1423   8.1891   8.5708   8.7981   8.8915   9.0685   9.4227
     9.6553

     occupation numbers 
     1.0000   1.0000   1.0000   1.0000   1.0000   1.0000   1.0000   1.0000
     1.0000   1.0000   1.0000   1.0000   1.0000   1.0000   1.0000   1.0000
     1.0000   0.0235   0.0067   0.0000   0.0000   0.0000   0.0000   0.0000
     0.0000

          k = 0.3333 0.7313 0.5171 (  1587 PWs)   bands (ev):

   -70.3040 -70.3038 -39.1841 -39.1831 -39.0354 -39.0352 -39.0330 -39.0330
    -5.6149  -5.4438   2.7675   2.8154   3.3791   3.9071   4.1590   4.2305
     7.6858   7.7825   8.4618   8.5846   8.7336   8.7568   9.2275   9.3462
     9.5682

     occupation numbers 
     1.0000   1.0000   1.0000   1.0000   1.0000   1.0000   1.0000   1.0000
     1.0000   1.0000   1.0000   1.0000   1.0000   1.0000   1.0000   1.0000
     0.9971   0.9602   0.0000   0.0000   0.0000   0.0000   0.0000   0.0000
     0.0000

          k = 0.3333 0.7313-1.4425 (  1573 PWs)   bands (ev):

   -70.3038 -70.3038 -39.1836 -39.1832 -39.0357 -39.0353 -39.0335 -39.0334
    -5.4815  -5.4145   2.7798   2.8170   3.5023   3.5531   4.0544   4.1833
     7.5655   7.8838   8.1899   8.2943   8.7203   8.8295   9.0714   9.2429
     9.5762

     occupation numbers 
     1.0000   1.0000   1.0000   1.0000   1.0000   1.0000   1.0000   1.0000
     1.0000   1.0000   1.0000   1.0000   1.0000   1.0000   1.0000   1.0000
     1.0000   0.7579   0.0065   0.0002   0.0000   0.0000   0.0000   0.0000
     0.0000

          k = 0.3333 0.7313-0.9526 (  1579 PWs)   bands (ev):

   -70.3039 -70.3038 -39.1834 -39.1834 -39.0358 -39.0353 -39.0337 -39.0334
    -5.4557  -5.4417   2.8978   2.9007   3.3972   3.4175   4.1050   4.1360
     7.6814   7.7522   8.1814   8.1987   8.7833   8.8046   9.1138   9.1576
     9.6504

     occupation numbers 
     1.0000   1.0000   1.0000   1.0000   1.0000   1.0000   1.0000   1.0000
     1.0000   1.0000   1.0000   1.0000   1.0000   1.0000   1.0000   1.0000
     0.9975   0.9806   0.0083   0.0050   0.0000   0.0000   0.0000   0.0000
     0.0000

          k = 0.3333-1.1162 0.1905 (  1581 PWs)   bands (ev):

   -70.3039 -70.3038 -39.1835 -39.1835 -39.0355 -39.0351 -39.0331 -39.0327
    -5.5312  -5.5267   2.5600   2.6213   3.7659   4.0357   4.1485   4.2463
     7.5394   8.0831   8.4313   8.6589   8.8325   8.8721   9.1575   9.2112
     9.2692

     occupation numbers 
     1.0000   1.0000   1.0000   1.0000   1.0000   1.0000   1.0000   1.0000
     1.0000   1.0000   1.0000   1.0000   1.0000   1.0000   1.0000   1.0000
     1.0000   0.0850   0.0000   0.0000   0.0000   0.0000   0.0000   0.0000
     0.0000

          k = 0.3333-1.1162 0.6804 (  1576 PWs)   bands (ev):

   -70.3039 -70.3037 -39.1837 -39.1830 -39.0356 -39.0355 -39.0336 -39.0334
    -5.5076  -5.3851   2.5870   2.6877   3.6585   3.7611   4.1006   4.1736
     7.4695   8.0242   8.3216   8.4029   8.6302   8.6742   9.1247   9.3678
     9.3842

     occupation numbers 
     1.0000   1.0000   1.0000   1.0000   1.0000   1.0000   1.0000   1.0000
     1.0000   1.0000   1.0000   1.0000   1.0000   1.0000   1.0000   1.0000
     1.0000   0.2237   0.0001   0.0000   0.0000   0.0000   0.0000   0.0000
     0.0000

          k = 0.3333-1.1162 1.1703 (  1573 PWs)   bands (ev):

   -70.3038 -70.3038 -39.1836 -39.1832 -39.0357 -39.0353 -39.0338 -39.0332
    -5.4815  -5.4144   2.7798   2.8169   3.5020   3.5536   4.0539   4.1840
     7.5670   7.8819   8.1876   8.2960   8.7192   8.8298   9.0733   9.2420
     9.5748

     occupation numbers 
     1.0000   1.0000   1.0000   1.0000   1.0000   1.0000   1.0000   1.0000
     1.0000   1.0000   1.0000   1.0000   1.0000   1.0000   1.0000   1.0000
     1.0000   0.7640   0.0070   0.0002   0.0000   0.0000   0.0000   0.0000
     0.0000

          k = 0.3333-1.1162-0.7893 (  1577 PWs)   bands (ev):

   -70.3040 -70.3037 -39.1844 -39.1825 -39.0353 -39.0353 -39.0333 -39.0325
    -5.6731  -5.3772   2.5682   2.5834   3.7467   4.1022   4.1795   4.2111
     7.4128   8.3150   8.3824   8.5960   8.6561   8.6708   9.1500   9.2253
     9.7198

     occupation numbers 
     1.0000   1.0000   1.0000   1.0000   1.0000   1.0000   1.0000   1.0000
     1.0000   1.0000   1.0000   1.0000   1.0000   1.0000   1.0000   1.0000
     1.0000   0.0001   0.0000   0.0000   0.0000   0.0000   0.0000   0.0000
     0.0000

          k = 0.3333-1.1162-0.2994 (  1580 PWs)   bands (ev):

   -70.3040 -70.3038 -39.1843 -39.1826 -39.0344 -39.0340 -39.0335 -39.0335
    -5.7027  -5.4538   2.7850   2.8396   3.5819   3.9847   4.1251   4.1267
     7.6883   8.0226   8.2099   8.6565   8.8521   8.8523   9.0523   9.4303
     9.6768

     occupation numbers 
     1.0000   1.0000   1.0000   1.0000   1.0000   1.0000   1.0000   1.0000
     1.0000   1.0000   1.0000   1.0000   1.0000   1.0000   1.0000   1.0000
     0.9969   0.2286   0.0036   0.0000   0.0000   0.0000   0.0000   0.0000
     0.0000

          k = 0.3333-0.6543 0.0272 (  1602 PWs)   bands (ev):

   -70.3041 -70.3041 -39.1839 -39.1835 -39.0339 -39.0337 -39.0321 -39.0319
    -5.8196  -5.7497   2.8971   3.0109   3.9139   4.0550   4.1479   4.2486
     7.9071   8.2047   8.5452   8.6885   8.9607   9.0125   9.4527   9.5514
     9.8956

     occupation numbers 
     1.0000   1.0000   1.0000   1.0000   1.0000   1.0000   1.0000   1.0000
     1.0000   1.0000   1.0000   1.0000   1.0000   1.0000   1.0000   1.0000
     0.6764   0.0042   0.0000   0.0000   0.0000   0.0000   0.0000   0.0000
     0.0000

          k = 0.3333-0.6543 0.5171 (  1589 PWs)   bands (ev):

   -70.3041 -70.3038 -39.1841 -39.1830 -39.0356 -39.0354 -39.0323 -39.0323
    -5.6724  -5.4861   2.7445   2.7909   3.6778   4.0057   4.1019   4.1392
     7.7522   7.9573   8.2638   8.6812   8.7855   8.8459   9.0708   9.3789
     9.6875

     occupation numbers 
     1.0000   1.0000   1.0000   1.0000   1.0000   1.0000   1.0000   1.0000
     1.0000   1.0000   1.0000   1.0000   1.0000   1.0000   1.0000   1.0000
     0.9807   0.4744   0.0006   0.0000   0.0000   0.0000   0.0000   0.0000
     0.0000

          k = 0.3333-0.6543 1.0070 (  1579 PWs)   bands (ev):

   -70.3039 -70.3038 -39.1834 -39.1834 -39.0364 -39.0364 -39.0328 -39.0326
    -5.4557  -5.4417   2.8983   2.9012   3.3968   3.4174   4.1044   4.1361
     7.6837   7.7521   8.1794   8.1990   8.7817   8.8037   9.1147   9.1575
     9.6481

     occupation numbers 
     1.0000   1.0000   1.0000   1.0000   1.0000   1.0000   1.0000   1.0000
     1.0000   1.0000   1.0000   1.0000   1.0000   1.0000   1.0000   1.0000
     0.9973   0.9807   0.0088   0.0050   0.0000   0.0000   0.0000   0.0000
     0.0000

          k = 0.3333-0.6543-0.9526 (  1580 PWs)   bands (ev):

   -70.3040 -70.3038 -39.1843 -39.1826 -39.0356 -39.0353 -39.0324 -39.0322
    -5.7027  -5.4538   2.7851   2.8402   3.5825   3.9838   4.1243   4.1268
     7.6894   8.0250   8.2082   8.6547   8.8512   8.8517   9.0541   9.4278
     9.6755

     occupation numbers 
     1.0000   1.0000   1.0000   1.0000   1.0000   1.0000   1.0000   1.0000
     1.0000   1.0000   1.0000   1.0000   1.0000   1.0000   1.0000   1.0000
     0.9967   0.2212   0.0038   0.0000   0.0000   0.0000   0.0000   0.0000
     0.0000

          k = 0.3333-0.6543-0.4627 (  1599 PWs)   bands (ev):

   -70.3041 -70.3040 -39.1843 -39.1830 -39.0340 -39.0336 -39.0322 -39.0318
    -5.8751  -5.6916   2.7986   3.0916   3.9715   4.0197   4.1580   4.2375
     7.9038   8.2375   8.5466   8.7087   8.7581   9.2108   9.4858   9.5493
     9.8159

     occupation numbers 
     1.0000   1.0000   1.0000   1.0000   1.0000   1.0000   1.0000   1.0000
     1.0000   1.0000   1.0000   1.0000   1.0000   1.0000   1.0000   1.0000
     0.6884   0.0015   0.0000   0.0000   0.0000   0.0000   0.0000   0.0000
     0.0000

     the Fermi energy is     7.9511 ev

!    total energy              =    -705.47480021 Ry
     total all-electron energy =     -6231.191607 Ry
     estimated scf accuracy    <          4.4E-11 Ry
     smearing contrib. (-TS)   =      -0.00197451 Ry
     internal energy E=F+TS    =    -705.47282570 Ry

     The total energy is F=E-TS. E is the sum of the following terms:
     one-electron contribution =    -304.51564229 Ry
     hartree contribution      =     169.00653061 Ry
     xc contribution           =     -65.96280670 Ry
     ewald contribution        =    -256.51068425 Ry
     one-center paw contrib.   =    -247.49022306 Ry
      -> PAW hartree energy AE =     175.42373585 Ry
      -> PAW hartree energy PS =    -176.37838011 Ry
      -> PAW xc energy AE      =    -104.43789930 Ry
      -> PAW xc energy PS      =      27.77772886 Ry
      -> total E_H with PAW    =     168.05188635 Ry
      -> total E_XC with PAW   =    -142.62297714 Ry

     total magnetization       =     7.81 Bohr mag/cell
     absolute magnetization    =     7.92 Bohr mag/cell

     convergence has been achieved in  20 iterations

     Forces acting on atoms (cartesian axes, Ry/au):

     atom    1 type  1   force =    -0.00430476    0.00248535    0.00241075
     atom    2 type  2   force =    -0.00431894    0.00249354    0.00241642
     atom    3 type  3   force =     0.00431245   -0.00248979   -0.00241378
     atom    4 type  3   force =     0.00431125   -0.00248910   -0.00241338
     The non-local contrib.  to forces
     atom    1 type  1   force =    -0.02812357    0.01623715    0.01160404
     atom    2 type  2   force =    -0.02813276    0.01624246    0.01160807
     atom    3 type  3   force =     0.00666918   -0.00385045   -0.00253939
     atom    4 type  3   force =     0.00666732   -0.00384938   -0.00253867
     The ionic contribution  to forces
     atom    1 type  1   force =    -0.00000135   -0.00000078   -0.00000055
     atom    2 type  2   force =    -0.00000135   -0.00000078   -0.00000055
     atom    3 type  3   force =     0.00000135    0.00000078    0.00000055
     atom    4 type  3   force =     0.00000135    0.00000078    0.00000055
     The local contribution  to forces
     atom    1 type  1   force =     0.02067602   -0.01193629   -0.00799983
     atom    2 type  2   force =     0.02070233   -0.01195148   -0.00801134
     atom    3 type  3   force =    -0.00219925    0.00126848    0.00006624
     atom    4 type  3   force =    -0.00219765    0.00126756    0.00006561
     The core correction contribution to forces
     atom    1 type  1   force =     0.00311267   -0.00179710   -0.00117839
     atom    2 type  2   force =     0.00311282   -0.00179719   -0.00117853
     atom    3 type  3   force =    -0.00017603    0.00010163    0.00006487
     atom    4 type  3   force =    -0.00017599    0.00010161    0.00006485
     The Hubbard contrib.    to forces
     atom    1 type  1   force =     0.00000000    0.00000000    0.00000000
     atom    2 type  2   force =     0.00000000    0.00000000    0.00000000
     atom    3 type  3   force =     0.00000000    0.00000000    0.00000000
     atom    4 type  3   force =     0.00000000    0.00000000    0.00000000
     The SCF correction term to forces
     atom    1 type  1   force =     0.00001460   -0.00000843   -0.00000832
     atom    2 type  2   force =    -0.00001685    0.00000973    0.00000496
     atom    3 type  3   force =     0.00000068   -0.00000040    0.00000014
     atom    4 type  3   force =    -0.00000029    0.00000017    0.00000047

     Total force =     0.011066     Total SCF correction =     0.000028

     BFGS Geometry Optimization
     Energy error            =      0.0E+00 Ry
     Gradient error          =      4.3E-03 Ry/Bohr

     number of scf cycles    =   1
     number of bfgs steps    =   0

     energy             new  =    -705.4748002059 Ry

     new trust radius        =       0.0055416655 bohr
     new conv_thr            =            1.0E-10 Ry


ATOMIC_POSITIONS (crystal)
Mn1              0.3745452722        0.7502550499        0.7503993557
Mn2              0.8745438372        0.7502560155        0.7504002946
S                0.0004555047       -0.0002555756       -0.0003998582
S                0.5004553860       -0.0002554899       -0.0003997921



     Writing config-only to output data dir ./temp/mns.save/ :
     XML data file
     NEW-OLD atomic charge density approx. for the potential

     Check: negative core charge=   -0.000236
     Generating pointlists ...

     total cpu time spent up to now is       65.2 secs

     Self-consistent Calculation

     iteration #  1     ecut=    30.00 Ry     beta= 0.70
     Davidson diagonalization with overlap

---- Real-time Memory Report at c_bands before calling an iterative solver
            74 MiB given to the printing process from OS
             0 MiB allocation reported by mallinfo(arena+hblkhd)
          4943 MiB available memory on the node where the printing process lives
------------------
     ethr =  1.00E-06,  avg # of iterations =  3.8

     Threshold (ethr) on eigenvalues was too large:
     Diagonalizing with lowered threshold

     Davidson diagonalization with overlap

---- Real-time Memory Report at c_bands before calling an iterative solver
            74 MiB given to the printing process from OS
             0 MiB allocation reported by mallinfo(arena+hblkhd)
          4946 MiB available memory on the node where the printing process lives
------------------
     ethr =  3.36E-08,  avg # of iterations =  5.6

     total cpu time spent up to now is       71.7 secs

     total energy              =    -705.47490812 Ry
     estimated scf accuracy    <       0.00001720 Ry

     total magnetization       =     7.81 Bohr mag/cell
     absolute magnetization    =     7.92 Bohr mag/cell

     iteration #  2     ecut=    30.00 Ry     beta= 0.70
     Davidson diagonalization with overlap

---- Real-time Memory Report at c_bands before calling an iterative solver
            74 MiB given to the printing process from OS
             0 MiB allocation reported by mallinfo(arena+hblkhd)
          4945 MiB available memory on the node where the printing process lives
------------------
     ethr =  4.10E-08,  avg # of iterations =  2.0

     total cpu time spent up to now is       74.1 secs

     total energy              =    -705.47491029 Ry
[...]
     0.0000

          k = 0.3333-0.1925-0.6260 (  1602 PWs)   bands (ev):

   -70.3065 -70.3064 -39.1870 -39.1865 -39.0389 -39.0385 -39.0316 -39.0310
    -5.8169  -5.7460   2.8841   2.9990   3.9264   4.0698   4.1812   4.2657
     7.8985   8.2028   8.5385   8.6785   8.9129   8.9783   9.4507   9.5131
     9.9009

     occupation numbers 
     1.0000   1.0000   1.0000   1.0000   1.0000   1.0000   1.0000   1.0000
     1.0000   1.0000   1.0000   1.0000   1.0000   1.0000   1.0000   1.0000
     0.7049   0.0043   0.0000   0.0000   0.0000   0.0000   0.0000   0.0000
     0.0000

          k = 0.3333 0.2694-0.2994 (  1594 PWs)   bands (ev):

   -70.3066 -70.3062 -39.1883 -39.1851 -39.0381 -39.0378 -39.0323 -39.0317
    -5.9985  -5.5483   2.6539   3.4335   3.7252   4.0212   4.1611   4.3002
     8.0030   8.0969   8.2848   8.5799   8.7170   9.2115   9.8650   9.8875
     9.9917

     occupation numbers 
     1.0000   1.0000   1.0000   1.0000   1.0000   1.0000   1.0000   1.0000
     1.0000   1.0000   1.0000   1.0000   1.0000   1.0000   1.0000   1.0000
     0.2920   0.0638   0.0003   0.0000   0.0000   0.0000   0.0000   0.0000
     0.0000

          k = 0.3333 0.2694 0.1905 (  1598 PWs)   bands (ev):

   -70.3066 -70.3063 -39.1888 -39.1847 -39.0383 -39.0376 -39.0323 -39.0317
    -6.0464  -5.4911   2.5373   3.4821   3.8027   4.0378   4.1875   4.2664
     7.7991   8.3314   8.4326   8.4490   8.5439   9.4252   9.4707   9.6279
    10.3247

     occupation numbers 
     1.0000   1.0000   1.0000   1.0000   1.0000   1.0000   1.0000   1.0000
     1.0000   1.0000   1.0000   1.0000   1.0000   1.0000   1.0000   1.0000
     0.9420   0.0000   0.0000   0.0000   0.0000   0.0000   0.0000   0.0000
     0.0000

          k = 0.3333 0.2694 0.6804 (  1583 PWs)   bands (ev):

   -70.3065 -70.3061 -39.1878 -39.1853 -39.0396 -39.0396 -39.0326 -39.0321
    -5.7580  -5.3909   2.9535   2.9867   3.3249   3.8299   4.1005   4.1759
     7.4920   8.1505   8.1767   8.5860   8.7920   8.9345   9.0700   9.4233
     9.6395

     occupation numbers 
     1.0000   1.0000   1.0000   1.0000   1.0000   1.0000   1.0000   1.0000
     1.0000   1.0000   1.0000   1.0000   1.0000   1.0000   1.0000   1.0000
     1.0000   0.0187   0.0093   0.0000   0.0000   0.0000   0.0000   0.0000
     0.0000

          k = 0.3333 0.2694-1.2792 (  1576 PWs)   bands (ev):

   -70.3063 -70.3061 -39.1869 -39.1860 -39.0409 -39.0403 -39.0330 -39.0322
    -5.5074  -5.3832   2.5924   2.6877   3.6697   3.7495   4.0809   4.1469
     7.4811   8.0596   8.3332   8.4166   8.6307   8.6700   9.1238   9.3816
     9.3849

     occupation numbers 
     1.0000   1.0000   1.0000   1.0000   1.0000   1.0000   1.0000   1.0000
     1.0000   1.0000   1.0000   1.0000   1.0000   1.0000   1.0000   1.0000
     1.0000   0.1280   0.0000   0.0000   0.0000   0.0000   0.0000   0.0000
     0.0000

          k = 0.3333 0.2694-0.7893 (  1589 PWs)   bands (ev):

   -70.3064 -70.3062 -39.1873 -39.1860 -39.0398 -39.0394 -39.0326 -39.0321
    -5.6715  -5.4833   2.7428   2.7948   3.6870   4.0102   4.0743   4.1461
     7.7441   7.9670   8.2413   8.6890   8.7968   8.8482   9.0639   9.4042
     9.6874

     occupation numbers 
     1.0000   1.0000   1.0000   1.0000   1.0000   1.0000   1.0000   1.0000
     1.0000   1.0000   1.0000   1.0000   1.0000   1.0000   1.0000   1.0000
     0.9840   0.4311   0.0012   0.0000   0.0000   0.0000   0.0000   0.0000
     0.0000

          k = 0.3333 0.7313-0.4627 (  1583 PWs)   bands (ev):

   -70.3063 -70.3062 -39.1874 -39.1857 -39.0392 -39.0388 -39.0336 -39.0333
    -5.6545  -5.3976   2.7527   2.8390   3.3492   3.8959   4.1887   4.2343
     7.5046   8.0013   8.4703   8.5122   8.7178   8.7309   9.2146   9.4103
     9.5171

     occupation numbers 
     1.0000   1.0000   1.0000   1.0000   1.0000   1.0000   1.0000   1.0000
     1.0000   1.0000   1.0000   1.0000   1.0000   1.0000   1.0000   1.0000
     1.0000   0.2980   0.0000   0.0000   0.0000   0.0000   0.0000   0.0000
     0.0000

          k = 0.3333 0.7313 0.0272 (  1583 PWs)   bands (ev):

   -70.3065 -70.3061 -39.1877 -39.1853 -39.0387 -39.0381 -39.0336 -39.0336
    -5.7576  -5.3909   2.9521   2.9825   3.3238   3.8390   4.1045   4.1804
     7.4868   8.1460   8.1815   8.5822   8.7944   8.9253   9.0655   9.4238
     9.6401

     occupation numbers 
     1.0000   1.0000   1.0000   1.0000   1.0000   1.0000   1.0000   1.0000
     1.0000   1.0000   1.0000   1.0000   1.0000   1.0000   1.0000   1.0000
     1.0000   0.0210   0.0081   0.0000   0.0000   0.0000   0.0000   0.0000
     0.0000

          k = 0.3333 0.7313 0.5171 (  1587 PWs)   bands (ev):

   -70.3064 -70.3062 -39.1872 -39.1861 -39.0390 -39.0390 -39.0335 -39.0334
    -5.6138  -5.4415   2.7755   2.8276   3.3589   3.8672   4.1771   4.2490
     7.6673   7.7843   8.4668   8.5769   8.7623   8.7689   9.2205   9.3463
     9.5706

     occupation numbers 
     1.0000   1.0000   1.0000   1.0000   1.0000   1.0000   1.0000   1.0000
     1.0000   1.0000   1.0000   1.0000   1.0000   1.0000   1.0000   1.0000
     0.9984   0.9578   0.0000   0.0000   0.0000   0.0000   0.0000   0.0000
     0.0000

          k = 0.3333 0.7313-1.4425 (  1573 PWs)   bands (ev):

   -70.3062 -70.3061 -39.1866 -39.1863 -39.0398 -39.0391 -39.0339 -39.0335
    -5.4803  -5.4131   2.7861   2.8187   3.4938   3.5462   4.0455   4.1700
     7.5793   7.9030   8.2070   8.2904   8.7363   8.8231   9.0754   9.2445
     9.5805

     occupation numbers 
     1.0000   1.0000   1.0000   1.0000   1.0000   1.0000   1.0000   1.0000
     1.0000   1.0000   1.0000   1.0000   1.0000   1.0000   1.0000   1.0000
     0.9999   0.6886   0.0038   0.0002   0.0000   0.0000   0.0000   0.0000
     0.0000

          k = 0.3333 0.7313-0.9526 (  1579 PWs)   bands (ev):

   -70.3062 -70.3062 -39.1865 -39.1864 -39.0398 -39.0392 -39.0339 -39.0335
    -5.4544  -5.4405   2.9064   2.9087   3.3852   3.4014   4.0968   4.1271
     7.6980   7.7660   8.1943   8.2016   8.7941   8.8087   9.1125   9.1565
     9.6543

     occupation numbers 
     1.0000   1.0000   1.0000   1.0000   1.0000   1.0000   1.0000   1.0000
     1.0000   1.0000   1.0000   1.0000   1.0000   1.0000   1.0000   1.0000
     0.9956   0.9723   0.0056   0.0045   0.0000   0.0000   0.0000   0.0000
     0.0000

          k = 0.3333-1.1162 0.1905 (  1581 PWs)   bands (ev):

   -70.3063 -70.3062 -39.1865 -39.1865 -39.0391 -39.0389 -39.0335 -39.0334
    -5.5294  -5.5250   2.5662   2.6227   3.7498   4.0037   4.1752   4.2560
     7.5397   8.0702   8.4442   8.6484   8.8650   8.8714   9.1457   9.2010
     9.2632

     occupation numbers 
     1.0000   1.0000   1.0000   1.0000   1.0000   1.0000   1.0000   1.0000
     1.0000   1.0000   1.0000   1.0000   1.0000   1.0000   1.0000   1.0000
     1.0000   0.1064   0.0000   0.0000   0.0000   0.0000   0.0000   0.0000
     0.0000

          k = 0.3333-1.1162 0.6804 (  1576 PWs)   bands (ev):

   -70.3063 -70.3061 -39.1868 -39.1860 -39.0398 -39.0392 -39.0338 -39.0336
    -5.5066  -5.3835   2.5912   2.6838   3.6729   3.7579   4.0782   4.1527
     7.4796   8.0507   8.3406   8.4098   8.6283   8.6740   9.1235   9.3810
     9.3853

     occupation numbers 
     1.0000   1.0000   1.0000   1.0000   1.0000   1.0000   1.0000   1.0000
     1.0000   1.0000   1.0000   1.0000   1.0000   1.0000   1.0000   1.0000
     1.0000   0.1484   0.0000   0.0000   0.0000   0.0000   0.0000   0.0000
     0.0000

          k = 0.3333-1.1162 1.1703 (  1573 PWs)   bands (ev):

   -70.3062 -70.3061 -39.1866 -39.1862 -39.0396 -39.0394 -39.0339 -39.0335
    -5.4806  -5.4129   2.7855   2.8181   3.4907   3.5520   4.0448   4.1692
     7.5774   7.9058   8.1976   8.2975   8.7364   8.8247   9.0781   9.2424
     9.5758

     occupation numbers 
     1.0000   1.0000   1.0000   1.0000   1.0000   1.0000   1.0000   1.0000
     1.0000   1.0000   1.0000   1.0000   1.0000   1.0000   1.0000   1.0000
     0.9999   0.6784   0.0051   0.0002   0.0000   0.0000   0.0000   0.0000
     0.0000

          k = 0.3333-1.1162-0.7893 (  1577 PWs)   bands (ev):

   -70.3063 -70.3061 -39.1874 -39.1855 -39.0393 -39.0387 -39.0336 -39.0332
    -5.6724  -5.3744   2.5754   2.5848   3.7315   4.0687   4.2107   4.2165
     7.3987   8.3104   8.3650   8.6124   8.6620   8.6797   9.1653   9.2103
     9.7483

     occupation numbers 
     1.0000   1.0000   1.0000   1.0000   1.0000   1.0000   1.0000   1.0000
     1.0000   1.0000   1.0000   1.0000   1.0000   1.0000   1.0000   1.0000
     1.0000   0.0001   0.0000   0.0000   0.0000   0.0000   0.0000   0.0000
     0.0000

          k = 0.3333-1.1162-0.2994 (  1580 PWs)   bands (ev):

   -70.3063 -70.3061 -39.1873 -39.1857 -39.0386 -39.0382 -39.0335 -39.0335
    -5.7014  -5.4509   2.7795   2.8439   3.5927   3.9833   4.1113   4.1381
     7.6689   8.0295   8.1967   8.6624   8.8532   8.8634   9.0456   9.4419
     9.6724

     occupation numbers 
     1.0000   1.0000   1.0000   1.0000   1.0000   1.0000   1.0000   1.0000
     1.0000   1.0000   1.0000   1.0000   1.0000   1.0000   1.0000   1.0000
     0.9983   0.2051   0.0052   0.0000   0.0000   0.0000   0.0000   0.0000
     0.0000

          k = 0.3333-0.6543 0.0272 (  1602 PWs)   bands (ev):

   -70.3065 -70.3064 -39.1870 -39.1866 -39.0382 -39.0378 -39.0321 -39.0320
    -5.8165  -5.7462   2.8817   2.9983   3.9273   4.0636   4.1884   4.2749
     7.8953   8.2021   8.5315   8.6806   8.9238   8.9642   9.4497   9.5112
     9.9001

     occupation numbers 
     1.0000   1.0000   1.0000   1.0000   1.0000   1.0000   1.0000   1.0000
     1.0000   1.0000   1.0000   1.0000   1.0000   1.0000   1.0000   1.0000
     0.7164   0.0044   0.0000   0.0000   0.0000   0.0000   0.0000   0.0000
     0.0000

          k = 0.3333-0.6543 0.5171 (  1589 PWs)   bands (ev):

   -70.3064 -70.3062 -39.1872 -39.1860 -39.0398 -39.0395 -39.0324 -39.0323
    -5.6710  -5.4837   2.7404   2.7954   3.6867   4.0136   4.0778   4.1414
     7.7474   7.9658   8.2509   8.6852   8.7948   8.8498   9.0682   9.3856
     9.6892

     occupation numbers 
     1.0000   1.0000   1.0000   1.0000   1.0000   1.0000   1.0000   1.0000
     1.0000   1.0000   1.0000   1.0000   1.0000   1.0000   1.0000   1.0000
     0.9825   0.4362   0.0009   0.0000   0.0000   0.0000   0.0000   0.0000
     0.0000

          k = 0.3333-0.6543 1.0070 (  1579 PWs)   bands (ev):

   -70.3062 -70.3062 -39.1865 -39.1865 -39.0406 -39.0406 -39.0327 -39.0325
    -5.4548  -5.4406   2.9096   2.9111   3.3783   3.4010   4.0930   4.1223
     7.7029   7.7746   8.1904   8.2080   8.7936   8.8092   9.1133   9.1558
     9.6546

     occupation numbers 
     1.0000   1.0000   1.0000   1.0000   1.0000   1.0000   1.0000   1.0000
     1.0000   1.0000   1.0000   1.0000   1.0000   1.0000   1.0000   1.0000
     0.9949   0.9661   0.0063   0.0037   0.0000   0.0000   0.0000   0.0000
     0.0000

          k = 0.3333-0.6543-0.9526 (  1580 PWs)   bands (ev):

   -70.3063 -70.3061 -39.1873 -39.1857 -39.0398 -39.0394 -39.0324 -39.0323
    -5.7016  -5.4512   2.7797   2.8468   3.5924   3.9781   4.1091   4.1319
     7.6776   8.0335   8.1973   8.6643   8.8546   8.8702   9.0485   9.4330
     9.6736

     occupation numbers 
     1.0000   1.0000   1.0000   1.0000   1.0000   1.0000   1.0000   1.0000
     1.0000   1.0000   1.0000   1.0000   1.0000   1.0000   1.0000   1.0000
     0.9977   0.1936   0.0051   0.0000   0.0000   0.0000   0.0000   0.0000
     0.0000

          k = 0.3333-0.6543-0.4627 (  1599 PWs)   bands (ev):

   -70.3064 -70.3064 -39.1874 -39.1861 -39.0382 -39.0377 -39.0321 -39.0320
    -5.8724  -5.6876   2.7832   3.0821   3.9759   4.0340   4.2003   4.2619
     7.8884   8.2368   8.5358   8.6989   8.7164   9.1726   9.4418   9.5449
     9.8181

     occupation numbers 
     1.0000   1.0000   1.0000   1.0000   1.0000   1.0000   1.0000   1.0000
     1.0000   1.0000   1.0000   1.0000   1.0000   1.0000   1.0000   1.0000
     0.7402   0.0015   0.0000   0.0000   0.0000   0.0000   0.0000   0.0000
     0.0000

     the Fermi energy is     7.9503 ev

!    total energy              =    -705.47512797 Ry
     total all-electron energy =     -6231.191935 Ry
     estimated scf accuracy    <          4.4E-13 Ry
     smearing contrib. (-TS)   =      -0.00191126 Ry
     internal energy E=F+TS    =    -705.47321671 Ry

     The total energy is F=E-TS. E is the sum of the following terms:
     one-electron contribution =    -304.53224400 Ry
     hartree contribution      =     169.01325271 Ry
     xc contribution           =     -65.96359399 Ry
     ewald contribution        =    -256.50042839 Ry
     one-center paw contrib.   =    -247.49020303 Ry
      -> PAW hartree energy AE =     175.43079412 Ry
      -> PAW hartree energy PS =    -176.38537030 Ry
      -> PAW xc energy AE      =    -104.43838604 Ry
      -> PAW xc energy PS      =      27.77821211 Ry
      -> total E_H with PAW    =     168.05867653 Ry
      -> total E_XC with PAW   =    -142.62376792 Ry

     total magnetization       =     7.81 Bohr mag/cell
     absolute magnetization    =     7.92 Bohr mag/cell

     convergence has been achieved in  15 iterations

     Forces acting on atoms (cartesian axes, Ry/au):

     atom    1 type  1   force =     0.00006575   -0.00003796    0.00002402
     atom    2 type  2   force =     0.00006549   -0.00003781    0.00002406
     atom    3 type  3   force =    -0.00006589    0.00003804   -0.00002391
     atom    4 type  3   force =    -0.00006535    0.00003773   -0.00002417
     The non-local contrib.  to forces
     atom    1 type  1   force =    -0.02289807    0.01322020    0.00633174
     atom    2 type  2   force =    -0.02289873    0.01322059    0.00633190
     atom    3 type  3   force =     0.00134025   -0.00077379    0.00062871
     atom    4 type  3   force =     0.00134078   -0.00077410    0.00062851
     The ionic contribution  to forces
     atom    1 type  1   force =     0.13122367   -0.07576356   -0.07881486
     atom    2 type  2   force =     0.13118214   -0.07573958   -0.07879947
     atom    3 type  3   force =    -0.13121663    0.07575949    0.07881381
     atom    4 type  3   force =    -0.13118918    0.07574364    0.07880052
     The local contribution  to forces
     atom    1 type  1   force =    -0.11126034    0.06423742    0.07334270
     atom    2 type  2   force =    -0.11121860    0.06421332    0.07332731
     atom    3 type  3   force =     0.12959081   -0.07482054   -0.07929944
     atom    4 type  3   force =     0.12956366   -0.07480486   -0.07928631
     The core correction contribution to forces
     atom    1 type  1   force =     0.00288287   -0.00166442   -0.00077117
     atom    2 type  2   force =     0.00288280   -0.00166438   -0.00077117
     atom    3 type  3   force =     0.00010317   -0.00005957   -0.00010301
     atom    4 type  3   force =     0.00010314   -0.00005955   -0.00010300
     The Hubbard contrib.    to forces
     atom    1 type  1   force =     0.00000000    0.00000000    0.00000000
     atom    2 type  2   force =     0.00000000    0.00000000    0.00000000
     atom    3 type  3   force =     0.00000000    0.00000000    0.00000000
     atom    4 type  3   force =     0.00000000    0.00000000    0.00000000
     The SCF correction term to forces
     atom    1 type  1   force =     0.00000087   -0.00000050   -0.00000043
     atom    2 type  2   force =     0.00000115   -0.00000066   -0.00000054
     atom    3 type  3   force =     0.00000003   -0.00000001   -0.00000001
     atom    4 type  3   force =    -0.00000025    0.00000015    0.00000009

     Total force =     0.000159     Total SCF correction =     0.000002
     Energy error            =      2.1E-07 Ry
     Gradient error          =      6.6E-05 Ry/Bohr

     bfgs converged in   8 scf cycles and   7 bfgs steps
     (criteria: energy <  1.0E-05 Ry, force <  1.0E-04 Ry/Bohr)

     End of BFGS Geometry Optimization

     Final energy             =    -705.4751279699 Ry

     File ./temp/mns.bfgs deleted, as requested
Begin final coordinates

ATOMIC_POSITIONS (crystal)
Mn1              0.3724980992        0.7512898042        0.7524241930
Mn2              0.8724980892        0.7512897702        0.7524242810
S                0.0025021566       -0.0012899563       -0.0024244002
S                0.5025016551       -0.0012896180       -0.0024240738
End final coordinates



     Writing all to output data dir ./temp/mns.save/ :
     XML data file, charge density, pseudopotentials, collected wavefunctions

     init_run     :      1.41s CPU      1.48s WALL (       1 calls)
     electrons    :    352.33s CPU    365.46s WALL (       8 calls)
     update_pot   :      1.88s CPU      1.89s WALL (       7 calls)
     forces       :      3.43s CPU      3.47s WALL (       8 calls)

     Called by init_run:
     wfcinit      :      0.73s CPU      0.76s WALL (       1 calls)
     wfcinit:atom :      0.01s CPU      0.01s WALL (      76 calls)
     wfcinit:wfcr :      0.67s CPU      0.71s WALL (      76 calls)
     potinit      :      0.33s CPU      0.35s WALL (       1 calls)
     hinit0       :      0.28s CPU      0.28s WALL (       1 calls)

     Called by electrons:
     c_bands      :    274.24s CPU    285.22s WALL (     127 calls)
     sum_band     :     41.10s CPU     43.15s WALL (     127 calls)
     v_of_rho     :      1.45s CPU      1.47s WALL (     127 calls)
     v_h          :      0.03s CPU      0.03s WALL (     127 calls)
     v_xc         :      1.50s CPU      1.53s WALL (     135 calls)
     newd         :      6.15s CPU      6.16s WALL (     127 calls)
     PAW_pot      :     33.25s CPU     33.29s WALL (     134 calls)
     mix_rho      :      0.22s CPU      0.22s WALL (     127 calls)

     Called by c_bands:
     init_us_2    :      3.28s CPU      3.40s WALL (   20520 calls)
     cegterg      :    265.58s CPU    276.38s WALL (    9652 calls)

     Called by sum_band:
     sum_band:wei :      0.10s CPU      0.10s WALL (     127 calls)
     sum_band:loo :     29.52s CPU     31.55s WALL (     127 calls)
     sum_band:buf :      0.26s CPU      0.27s WALL (    9652 calls)
     sum_band:ini :      1.48s CPU      1.57s WALL (    9652 calls)
     sum_band:cal :      9.36s CPU      9.95s WALL (   10184 calls)
     sum_band:bec :      0.46s CPU      0.48s WALL (   10184 calls)
     addusdens    :     11.24s CPU     11.26s WALL (     127 calls)
                                        0.00s GPU  (     127 calls)
     addusd:skk   :      0.01s CPU      0.01s WALL (     381 calls)
                                        0.00s GPU  (     381 calls)

     Called by *egterg:
     cdiaghg      :     34.03s CPU     34.83s WALL (   54874 calls)
     cegterg:over :     19.61s CPU     20.16s WALL (   46362 calls)
     cegterg:upda :     10.63s CPU     10.76s WALL (   46362 calls)
     cegterg:last :     24.76s CPU     25.05s WALL (   21494 calls)
     h_psi        :    145.88s CPU    153.79s WALL (   56090 calls)
     s_psi        :     22.41s CPU     23.38s WALL (   56090 calls)
     g_psi        :      0.54s CPU      0.54s WALL (   46362 calls)

     Called by h_psi:
     h_psi:calbec :     24.75s CPU     26.66s WALL (   56090 calls)
     vloc_psi     :     97.98s CPU    102.62s WALL (   56090 calls)
     add_vuspsi   :     22.32s CPU     23.67s WALL (   56090 calls)

     General routines
     calbec       :     36.31s CPU     38.84s WALL (   68706 calls)
     fft          :      0.67s CPU      0.68s WALL (    3302 calls)
     ffts         :      0.10s CPU      0.10s WALL (     508 calls)
     fftw         :    103.26s CPU    108.54s WALL ( 1556068 calls)
     interpolate  :      0.13s CPU      0.14s WALL (     254 calls)

     Parallel routines

     PAW routines
     PAW_pot      :     33.25s CPU     33.29s WALL (     134 calls)
     PAW_symme    :      0.01s CPU      0.01s WALL (     261 calls)

     PWSCF        :   6m 2.13s CPU   6m15.42s WALL


   This run was terminated on:  23:23:41  17Jan2025            

=------------------------------------------------------------------------------=
   JOB DONE.
=------------------------------------------------------------------------------=
