 INFO
nunit      1    1    1
unit   cell
celltype   primcell
shape   parapipedal
 END_INFO
 DIM-GROUP
           3           1
 PRIMVEC
    6.9981446280   -0.0034115760   -0.0496791240
    3.4961145710    6.0622772520   -0.0496791240
    1.7286206900    0.9980190980    2.8013893040
 CONVVEC
    6.9981446280   -0.0034115760   -0.0496791240
    3.4961145710    6.0622772520   -0.0496791240
    1.7286206900    0.9980190980    2.8013893040
 PRIMCOORD
           8           1
 25      5.2248168640     3.0165493620     2.0769643620    -0.0008846000    -0.0005106200     0.0006659200
 25      6.9728770290     6.0476876710     2.0521226110    -0.0008849700    -0.0005100300     0.0006659300
 25      8.7238884700     3.0148452510     2.0521230300    -0.0008840300    -0.0005112200     0.0006657600
 25     10.4719472650     6.0459825170     2.0272825950    -0.0008838400    -0.0005104300     0.0006654500
 16      1.7356128680     1.0020562780     2.7881998640     0.0008845100     0.0005107600    -0.0006659500
 16      3.4836718710     4.0331954180     2.7633585850     0.0008844600     0.0005102300    -0.0006656900
 16      5.2346853910     1.0003509920     2.7633588690     0.0008842500     0.0005109400    -0.0006658300
 16      6.9827442700     4.0314903770     2.7385177050     0.0008842100     0.0005103700    -0.0006655800
 CONVCOORD
           8           1
 25      5.2248168640     3.0165493620     2.0769643620
 25      6.9728770290     6.0476876710     2.0521226110
 25      8.7238884700     3.0148452510     2.0521230300
 25     10.4719472650     6.0459825170     2.0272825950
 16      1.7356128680     1.0020562780     2.7881998640
 16      3.4836718710     4.0331954180     2.7633585850
 16      5.2346853910     1.0003509920     2.7633588690
 16      6.9827442700     4.0314903770     2.7385177050
 RECIP-PRIMVEC
    0.1424397504   -0.0826240394   -0.0584581122

   -0.0003347123    0.1646684912   -0.0584580331

    0.0025200545    0.0014549554    0.3548923768

 RECIP-CONVVEC
    0.1424397504   -0.0826240394   -0.0584581122

   -0.0003347123    0.1646684912   -0.0584580331

    0.0025200545    0.0014549554    0.3548923768

 WIGNER-SEITZ-PRIMCELL
           4
  0.1643055E-01 -0.4034308E+01 -0.6846796E+00   0.2272692E+00 -0.9052411E+00 -0.3590087E+00
  0.1642816E-01 -0.4034308E+01 -0.6846811E+00   0.2272692E+00 -0.9052411E+00 -0.3590087E+00
  0.1756979E+01 -0.3029400E+01 -0.2116710E+01   0.2272692E+00 -0.9052411E+00 -0.3590087E+00
  0.1756981E+01 -0.3029400E+01 -0.2116708E+01   0.2272692E+00 -0.9052411E+00 -0.3590087E+00
           6
  0.1756979E+01 -0.3029400E+01 -0.2116710E+01   0.5085171E+00 -0.2871455E+00 -0.8117622E+00
  0.1748769E+01  0.1009654E+01 -0.3550592E+01   0.5085171E+00 -0.2871455E+00 -0.8117622E+00
  0.1783922E+01  0.1029950E+01 -0.3535750E+01   0.5085171E+00 -0.2871455E+00 -0.8117622E+00
  0.1783924E+01  0.1029950E+01 -0.3535748E+01   0.5085171E+00 -0.2871455E+00 -0.8117622E+00
  0.1792134E+01 -0.3009104E+01 -0.2101866E+01   0.5085171E+00 -0.2871455E+00 -0.8117622E+00
  0.1756981E+01 -0.3029400E+01 -0.2116708E+01   0.5085171E+00 -0.2871455E+00 -0.8117622E+00
           6
 -0.3477390E+01 -0.2007673E+01  0.7492022E+00  -0.5025410E+00 -0.2901420E+00 -0.8144140E+00
 -0.3485600E+01  0.2031381E+01 -0.6846796E+00  -0.5025410E+00 -0.2901420E+00 -0.8144140E+00
 -0.1745049E+01  0.3036289E+01 -0.2116708E+01  -0.5025410E+00 -0.2901420E+00 -0.8144140E+00
  0.1748769E+01  0.1009654E+01 -0.3550592E+01  -0.5025410E+00 -0.2901420E+00 -0.8144140E+00
  0.1756979E+01 -0.3029400E+01 -0.2116710E+01  -0.5025410E+00 -0.2901420E+00 -0.8144140E+00
  0.1642816E-01 -0.4034308E+01 -0.6846811E+00  -0.5025410E+00 -0.2901420E+00 -0.8144140E+00
           6
  0.1643055E-01 -0.4034308E+01 -0.6846796E+00   0.5000003E+00 -0.8660252E+00 -0.1262223E-14
  0.1756981E+01 -0.3029400E+01 -0.2116708E+01   0.5000003E+00 -0.8660252E+00 -0.1262223E-14
  0.1792134E+01 -0.3009104E+01 -0.2101866E+01   0.5000003E+00 -0.8660252E+00 -0.1262223E-14
  0.3485600E+01 -0.2031381E+01  0.6846796E+00   0.5000003E+00 -0.8660252E+00 -0.1262223E-14
  0.1745049E+01 -0.3036289E+01  0.2116708E+01   0.5000003E+00 -0.8660252E+00 -0.1262223E-14
  0.1709896E+01 -0.3056585E+01  0.2101866E+01   0.5000003E+00 -0.8660252E+00 -0.1262223E-14
           6
 -0.1783922E+01 -0.1029950E+01  0.3535750E+01  -0.2909703E+00 -0.8336938E+00  0.4693517E+00
 -0.1783924E+01 -0.1029950E+01  0.3535748E+01  -0.2909703E+00 -0.8336938E+00  0.4693517E+00
 -0.3477390E+01 -0.2007673E+01  0.7492022E+00  -0.2909703E+00 -0.8336938E+00  0.4693517E+00
  0.1642816E-01 -0.4034308E+01 -0.6846811E+00  -0.2909703E+00 -0.8336938E+00  0.4693517E+00
  0.1643055E-01 -0.4034308E+01 -0.6846796E+00  -0.2909703E+00 -0.8336938E+00  0.4693517E+00
  0.1709896E+01 -0.3056585E+01  0.2101866E+01  -0.2909703E+00 -0.8336938E+00  0.4693517E+00
           4
  0.1783922E+01  0.1029950E+01 -0.3535750E+01   0.5582666E-02  0.5839617E+00 -0.8117620E+00
  0.1748769E+01  0.1009654E+01 -0.3550592E+01   0.5582666E-02  0.5839617E+00 -0.8117620E+00
 -0.1745049E+01  0.3036289E+01 -0.2116708E+01   0.5582666E-02  0.5839617E+00 -0.8117620E+00
 -0.1709896E+01  0.3056585E+01 -0.2101866E+01   0.5582666E-02  0.5839617E+00 -0.8117620E+00
           6
  0.3477390E+01  0.2007673E+01 -0.7492022E+00   0.2909703E+00  0.8336938E+00 -0.4693517E+00
  0.1783924E+01  0.1029950E+01 -0.3535748E+01   0.2909703E+00  0.8336938E+00 -0.4693517E+00
  0.1783922E+01  0.1029950E+01 -0.3535750E+01   0.2909703E+00  0.8336938E+00 -0.4693517E+00
 -0.1709896E+01  0.3056585E+01 -0.2101866E+01   0.2909703E+00  0.8336938E+00 -0.4693517E+00
 -0.1643055E-01  0.4034308E+01  0.6846796E+00   0.2909703E+00  0.8336938E+00 -0.4693517E+00
 -0.1642816E-01  0.4034308E+01  0.6846811E+00   0.2909703E+00  0.8336938E+00 -0.4693517E+00
           4
  0.3485600E+01 -0.2031381E+01  0.6846796E+00   0.8674853E+00 -0.1648586E+00 -0.4693517E+00
  0.1792134E+01 -0.3009104E+01 -0.2101866E+01   0.8674853E+00 -0.1648586E+00 -0.4693517E+00
  0.1783924E+01  0.1029950E+01 -0.3535748E+01   0.8674853E+00 -0.1648586E+00 -0.4693517E+00
  0.3477390E+01  0.2007673E+01 -0.7492022E+00   0.8674853E+00 -0.1648586E+00 -0.4693517E+00
           6
 -0.1792134E+01  0.3009104E+01  0.2101866E+01  -0.5000003E+00  0.8660252E+00  0.2287780E-13
 -0.1756981E+01  0.3029400E+01  0.2116708E+01  -0.5000003E+00  0.8660252E+00  0.2287780E-13
 -0.1643055E-01  0.4034308E+01  0.6846796E+00  -0.5000003E+00  0.8660252E+00  0.2287780E-13
 -0.1709896E+01  0.3056585E+01 -0.2101866E+01  -0.5000003E+00  0.8660252E+00  0.2287780E-13
 -0.1745049E+01  0.3036289E+01 -0.2116708E+01  -0.5000003E+00  0.8660252E+00  0.2287780E-13
 -0.3485600E+01  0.2031381E+01 -0.6846796E+00  -0.5000003E+00  0.8660252E+00  0.2287780E-13
           4
 -0.1792134E+01  0.3009104E+01  0.2101866E+01  -0.8674853E+00  0.1648586E+00  0.4693517E+00
 -0.3485600E+01  0.2031381E+01 -0.6846796E+00  -0.8674853E+00  0.1648586E+00  0.4693517E+00
 -0.3477390E+01 -0.2007673E+01  0.7492022E+00  -0.8674853E+00  0.1648586E+00  0.4693517E+00
 -0.1783924E+01 -0.1029950E+01  0.3535748E+01  -0.8674853E+00  0.1648586E+00  0.4693517E+00
           4
 -0.1748769E+01 -0.1009654E+01  0.3550592E+01  -0.5582666E-02 -0.5839617E+00  0.8117620E+00
 -0.1783922E+01 -0.1029950E+01  0.3535750E+01  -0.5582666E-02 -0.5839617E+00  0.8117620E+00
  0.1709896E+01 -0.3056585E+01  0.2101866E+01  -0.5582666E-02 -0.5839617E+00  0.8117620E+00
  0.1745049E+01 -0.3036289E+01  0.2116708E+01  -0.5582666E-02 -0.5839617E+00  0.8117620E+00
           6
  0.1745049E+01 -0.3036289E+01  0.2116708E+01   0.5025410E+00  0.2901420E+00  0.8144140E+00
  0.3485600E+01 -0.2031381E+01  0.6846796E+00   0.5025410E+00  0.2901420E+00  0.8144140E+00
  0.3477390E+01  0.2007673E+01 -0.7492022E+00   0.5025410E+00  0.2901420E+00  0.8144140E+00
 -0.1642816E-01  0.4034308E+01  0.6846811E+00   0.5025410E+00  0.2901420E+00  0.8144140E+00
 -0.1756979E+01  0.3029400E+01  0.2116710E+01   0.5025410E+00  0.2901420E+00  0.8144140E+00
 -0.1748769E+01 -0.1009654E+01  0.3550592E+01   0.5025410E+00  0.2901420E+00  0.8144140E+00
           6
 -0.1783922E+01 -0.1029950E+01  0.3535750E+01  -0.5085171E+00  0.2871455E+00  0.8117622E+00
 -0.1748769E+01 -0.1009654E+01  0.3550592E+01  -0.5085171E+00  0.2871455E+00  0.8117622E+00
 -0.1756979E+01  0.3029400E+01  0.2116710E+01  -0.5085171E+00  0.2871455E+00  0.8117622E+00
 -0.1756981E+01  0.3029400E+01  0.2116708E+01  -0.5085171E+00  0.2871455E+00  0.8117622E+00
 -0.1792134E+01  0.3009104E+01  0.2101866E+01  -0.5085171E+00  0.2871455E+00  0.8117622E+00
 -0.1783924E+01 -0.1029950E+01  0.3535748E+01  -0.5085171E+00  0.2871455E+00  0.8117622E+00
           4
 -0.1642816E-01  0.4034308E+01  0.6846811E+00  -0.2272692E+00  0.9052411E+00  0.3590087E+00
 -0.1643055E-01  0.4034308E+01  0.6846796E+00  -0.2272692E+00  0.9052411E+00  0.3590087E+00
 -0.1756981E+01  0.3029400E+01  0.2116708E+01  -0.2272692E+00  0.9052411E+00  0.3590087E+00
 -0.1756979E+01  0.3029400E+01  0.2116710E+01  -0.2272692E+00  0.9052411E+00  0.3590087E+00
 WIGNER-SEITZ-PRIMCELL_END
 WIGNER-SEITZ-CONVCELL
           4
  0.1643055E-01 -0.4034308E+01 -0.6846796E+00   0.2272692E+00 -0.9052411E+00 -0.3590087E+00
  0.1642816E-01 -0.4034308E+01 -0.6846811E+00   0.2272692E+00 -0.9052411E+00 -0.3590087E+00
  0.1756979E+01 -0.3029400E+01 -0.2116710E+01   0.2272692E+00 -0.9052411E+00 -0.3590087E+00
  0.1756981E+01 -0.3029400E+01 -0.2116708E+01   0.2272692E+00 -0.9052411E+00 -0.3590087E+00
           6
  0.1756979E+01 -0.3029400E+01 -0.2116710E+01   0.5085171E+00 -0.2871455E+00 -0.8117622E+00
  0.1748769E+01  0.1009654E+01 -0.3550592E+01   0.5085171E+00 -0.2871455E+00 -0.8117622E+00
  0.1783922E+01  0.1029950E+01 -0.3535750E+01   0.5085171E+00 -0.2871455E+00 -0.8117622E+00
  0.1783924E+01  0.1029950E+01 -0.3535748E+01   0.5085171E+00 -0.2871455E+00 -0.8117622E+00
  0.1792134E+01 -0.3009104E+01 -0.2101866E+01   0.5085171E+00 -0.2871455E+00 -0.8117622E+00
  0.1756981E+01 -0.3029400E+01 -0.2116708E+01   0.5085171E+00 -0.2871455E+00 -0.8117622E+00
           6
 -0.3477390E+01 -0.2007673E+01  0.7492022E+00  -0.5025410E+00 -0.2901420E+00 -0.8144140E+00
 -0.3485600E+01  0.2031381E+01 -0.6846796E+00  -0.5025410E+00 -0.2901420E+00 -0.8144140E+00
 -0.1745049E+01  0.3036289E+01 -0.2116708E+01  -0.5025410E+00 -0.2901420E+00 -0.8144140E+00
  0.1748769E+01  0.1009654E+01 -0.3550592E+01  -0.5025410E+00 -0.2901420E+00 -0.8144140E+00
  0.1756979E+01 -0.3029400E+01 -0.2116710E+01  -0.5025410E+00 -0.2901420E+00 -0.8144140E+00
  0.1642816E-01 -0.4034308E+01 -0.6846811E+00  -0.5025410E+00 -0.2901420E+00 -0.8144140E+00
           6
  0.1643055E-01 -0.4034308E+01 -0.6846796E+00   0.5000003E+00 -0.8660252E+00 -0.1262223E-14
  0.1756981E+01 -0.3029400E+01 -0.2116708E+01   0.5000003E+00 -0.8660252E+00 -0.1262223E-14
  0.1792134E+01 -0.3009104E+01 -0.2101866E+01   0.5000003E+00 -0.8660252E+00 -0.1262223E-14
  0.3485600E+01 -0.2031381E+01  0.6846796E+00   0.5000003E+00 -0.8660252E+00 -0.1262223E-14
  0.1745049E+01 -0.3036289E+01  0.2116708E+01   0.5000003E+00 -0.8660252E+00 -0.1262223E-14
  0.1709896E+01 -0.3056585E+01  0.2101866E+01   0.5000003E+00 -0.8660252E+00 -0.1262223E-14
           6
 -0.1783922E+01 -0.1029950E+01  0.3535750E+01  -0.2909703E+00 -0.8336938E+00  0.4693517E+00
 -0.1783924E+01 -0.1029950E+01  0.3535748E+01  -0.2909703E+00 -0.8336938E+00  0.4693517E+00
 -0.3477390E+01 -0.2007673E+01  0.7492022E+00  -0.2909703E+00 -0.8336938E+00  0.4693517E+00
  0.1642816E-01 -0.4034308E+01 -0.6846811E+00  -0.2909703E+00 -0.8336938E+00  0.4693517E+00
  0.1643055E-01 -0.4034308E+01 -0.6846796E+00  -0.2909703E+00 -0.8336938E+00  0.4693517E+00
  0.1709896E+01 -0.3056585E+01  0.2101866E+01  -0.2909703E+00 -0.8336938E+00  0.4693517E+00
           4
  0.1783922E+01  0.1029950E+01 -0.3535750E+01   0.5582666E-02  0.5839617E+00 -0.8117620E+00
  0.1748769E+01  0.1009654E+01 -0.3550592E+01   0.5582666E-02  0.5839617E+00 -0.8117620E+00
 -0.1745049E+01  0.3036289E+01 -0.2116708E+01   0.5582666E-02  0.5839617E+00 -0.8117620E+00
 -0.1709896E+01  0.3056585E+01 -0.2101866E+01   0.5582666E-02  0.5839617E+00 -0.8117620E+00
           6
  0.3477390E+01  0.2007673E+01 -0.7492022E+00   0.2909703E+00  0.8336938E+00 -0.4693517E+00
  0.1783924E+01  0.1029950E+01 -0.3535748E+01   0.2909703E+00  0.8336938E+00 -0.4693517E+00
  0.1783922E+01  0.1029950E+01 -0.3535750E+01   0.2909703E+00  0.8336938E+00 -0.4693517E+00
 -0.1709896E+01  0.3056585E+01 -0.2101866E+01   0.2909703E+00  0.8336938E+00 -0.4693517E+00
 -0.1643055E-01  0.4034308E+01  0.6846796E+00   0.2909703E+00  0.8336938E+00 -0.4693517E+00
 -0.1642816E-01  0.4034308E+01  0.6846811E+00   0.2909703E+00  0.8336938E+00 -0.4693517E+00
           4
  0.3485600E+01 -0.2031381E+01  0.6846796E+00   0.8674853E+00 -0.1648586E+00 -0.4693517E+00
  0.1792134E+01 -0.3009104E+01 -0.2101866E+01   0.8674853E+00 -0.1648586E+00 -0.4693517E+00
  0.1783924E+01  0.1029950E+01 -0.3535748E+01   0.8674853E+00 -0.1648586E+00 -0.4693517E+00
  0.3477390E+01  0.2007673E+01 -0.7492022E+00   0.8674853E+00 -0.1648586E+00 -0.4693517E+00
           6
 -0.1792134E+01  0.3009104E+01  0.2101866E+01  -0.5000003E+00  0.8660252E+00  0.2287780E-13
 -0.1756981E+01  0.3029400E+01  0.2116708E+01  -0.5000003E+00  0.8660252E+00  0.2287780E-13
 -0.1643055E-01  0.4034308E+01  0.6846796E+00  -0.5000003E+00  0.8660252E+00  0.2287780E-13
 -0.1709896E+01  0.3056585E+01 -0.2101866E+01  -0.5000003E+00  0.8660252E+00  0.2287780E-13
 -0.1745049E+01  0.3036289E+01 -0.2116708E+01  -0.5000003E+00  0.8660252E+00  0.2287780E-13
 -0.3485600E+01  0.2031381E+01 -0.6846796E+00  -0.5000003E+00  0.8660252E+00  0.2287780E-13
           4
 -0.1792134E+01  0.3009104E+01  0.2101866E+01  -0.8674853E+00  0.1648586E+00  0.4693517E+00
 -0.3485600E+01  0.2031381E+01 -0.6846796E+00  -0.8674853E+00  0.1648586E+00  0.4693517E+00
 -0.3477390E+01 -0.2007673E+01  0.7492022E+00  -0.8674853E+00  0.1648586E+00  0.4693517E+00
 -0.1783924E+01 -0.1029950E+01  0.3535748E+01  -0.8674853E+00  0.1648586E+00  0.4693517E+00
           4
 -0.1748769E+01 -0.1009654E+01  0.3550592E+01  -0.5582666E-02 -0.5839617E+00  0.8117620E+00
 -0.1783922E+01 -0.1029950E+01  0.3535750E+01  -0.5582666E-02 -0.5839617E+00  0.8117620E+00
  0.1709896E+01 -0.3056585E+01  0.2101866E+01  -0.5582666E-02 -0.5839617E+00  0.8117620E+00
  0.1745049E+01 -0.3036289E+01  0.2116708E+01  -0.5582666E-02 -0.5839617E+00  0.8117620E+00
           6
  0.1745049E+01 -0.3036289E+01  0.2116708E+01   0.5025410E+00  0.2901420E+00  0.8144140E+00
  0.3485600E+01 -0.2031381E+01  0.6846796E+00   0.5025410E+00  0.2901420E+00  0.8144140E+00
  0.3477390E+01  0.2007673E+01 -0.7492022E+00   0.5025410E+00  0.2901420E+00  0.8144140E+00
 -0.1642816E-01  0.4034308E+01  0.6846811E+00   0.5025410E+00  0.2901420E+00  0.8144140E+00
 -0.1756979E+01  0.3029400E+01  0.2116710E+01   0.5025410E+00  0.2901420E+00  0.8144140E+00
 -0.1748769E+01 -0.1009654E+01  0.3550592E+01   0.5025410E+00  0.2901420E+00  0.8144140E+00
           6
 -0.1783922E+01 -0.1029950E+01  0.3535750E+01  -0.5085171E+00  0.2871455E+00  0.8117622E+00
 -0.1748769E+01 -0.1009654E+01  0.3550592E+01  -0.5085171E+00  0.2871455E+00  0.8117622E+00
 -0.1756979E+01  0.3029400E+01  0.2116710E+01  -0.5085171E+00  0.2871455E+00  0.8117622E+00
 -0.1756981E+01  0.3029400E+01  0.2116708E+01  -0.5085171E+00  0.2871455E+00  0.8117622E+00
 -0.1792134E+01  0.3009104E+01  0.2101866E+01  -0.5085171E+00  0.2871455E+00  0.8117622E+00
 -0.1783924E+01 -0.1029950E+01  0.3535748E+01  -0.5085171E+00  0.2871455E+00  0.8117622E+00
           4
 -0.1642816E-01  0.4034308E+01  0.6846811E+00  -0.2272692E+00  0.9052411E+00  0.3590087E+00
 -0.1643055E-01  0.4034308E+01  0.6846796E+00  -0.2272692E+00  0.9052411E+00  0.3590087E+00
 -0.1756981E+01  0.3029400E+01  0.2116708E+01  -0.2272692E+00  0.9052411E+00  0.3590087E+00
 -0.1756979E+01  0.3029400E+01  0.2116710E+01  -0.2272692E+00  0.9052411E+00  0.3590087E+00
 WIGNER-SEITZ-CONVCELL_END
 BRILLOUIN-ZONE-PRIMCELL
           6
 -0.1616566E+00 -0.5109016E-01 -0.6052996E-01  -0.8133591E+00 -0.4695935E+00 -0.3434077E+00
 -0.1609118E+00 -0.5151072E-01 -0.6171889E-01  -0.8133591E+00 -0.4695935E+00 -0.3434077E+00
 -0.1250654E+00 -0.1135985E+00 -0.6171889E-01  -0.8133591E+00 -0.4695935E+00 -0.3434077E+00
 -0.1250735E+00 -0.1144537E+00 -0.6053012E-01  -0.8133591E+00 -0.4695935E+00 -0.3434077E+00
 -0.1258183E+00 -0.1140331E+00 -0.5934120E-01  -0.8133591E+00 -0.4695935E+00 -0.3434077E+00
 -0.1616648E+00 -0.5194532E-01 -0.5934120E-01  -0.8133591E+00 -0.4695935E+00 -0.3434077E+00
           4
 -0.1628672E-01  0.3198869E-01  0.1762573E+00  -0.7053031E+00 -0.4072073E+00  0.5802843E+00
 -0.1616648E+00 -0.5194532E-01 -0.5934120E-01  -0.7053031E+00 -0.4072073E+00  0.5802843E+00
 -0.1258183E+00 -0.1140331E+00 -0.5934120E-01  -0.7053031E+00 -0.4072073E+00  0.5802843E+00
  0.1955973E-01 -0.3009913E-01  0.1762573E+00  -0.7053031E+00 -0.4072073E+00  0.5802843E+00
           6
  0.1922502E-01  0.1345694E+00  0.1177993E+00  -0.8151646E+00  0.4728469E+00  0.3345483E+00
 -0.1261530E+00  0.5063535E-01 -0.1177992E+00  -0.8151646E+00  0.4728469E+00  0.3345483E+00
 -0.1616566E+00 -0.5109016E-01 -0.6052996E-01  -0.8151646E+00  0.4728469E+00  0.3345483E+00
 -0.1616648E+00 -0.5194532E-01 -0.5934120E-01  -0.8151646E+00  0.4728469E+00  0.3345483E+00
 -0.1628672E-01  0.3198869E-01  0.1762573E+00  -0.8151646E+00  0.4728469E+00  0.3345483E+00
  0.1921684E-01  0.1337142E+00  0.1189881E+00  -0.8151646E+00  0.4728469E+00  0.3345483E+00
           6
  0.1254082E+00 -0.5021479E-01  0.1189882E+00   0.1915516E-02 -0.9423768E+00  0.3345479E+00
  0.1955973E-01 -0.3009913E-01  0.1762573E+00   0.1915516E-02 -0.9423768E+00  0.3345479E+00
 -0.1258183E+00 -0.1140331E+00 -0.5934120E-01   0.1915516E-02 -0.9423768E+00  0.3345479E+00
 -0.1250735E+00 -0.1144537E+00 -0.6053012E-01   0.1915516E-02 -0.9423768E+00  0.3345479E+00
 -0.1922502E-01 -0.1345694E+00 -0.1177993E+00   0.1915516E-02 -0.9423768E+00  0.3345479E+00
  0.1261530E+00 -0.5063535E-01  0.1177992E+00   0.1915516E-02 -0.9423768E+00  0.3345479E+00
           4
 -0.1261530E+00  0.5063535E-01 -0.1177992E+00  -0.8478593E+00 -0.2585439E-02 -0.5302150E+00
 -0.1254082E+00  0.5021479E-01 -0.1189882E+00  -0.8478593E+00 -0.2585439E-02 -0.5302150E+00
 -0.1609118E+00 -0.5151072E-01 -0.6171889E-01  -0.8478593E+00 -0.2585439E-02 -0.5302150E+00
 -0.1616566E+00 -0.5109016E-01 -0.6052996E-01  -0.8478593E+00 -0.2585439E-02 -0.5302150E+00
           6
 -0.1254082E+00  0.5021479E-01 -0.1189882E+00  -0.4974629E+00 -0.2872106E+00 -0.8185602E+00
 -0.1955973E-01  0.3009913E-01 -0.1762573E+00  -0.4974629E+00 -0.2872106E+00 -0.8185602E+00
  0.1628672E-01 -0.3198869E-01 -0.1762573E+00  -0.4974629E+00 -0.2872106E+00 -0.8185602E+00
 -0.1921684E-01 -0.1337142E+00 -0.1189881E+00  -0.4974629E+00 -0.2872106E+00 -0.8185602E+00
 -0.1250654E+00 -0.1135985E+00 -0.6171889E-01  -0.4974629E+00 -0.2872106E+00 -0.8185602E+00
 -0.1609118E+00 -0.5151072E-01 -0.6171889E-01  -0.4974629E+00 -0.2872106E+00 -0.8185602E+00
           4
 -0.1250735E+00 -0.1144537E+00 -0.6053012E-01  -0.4261682E+00 -0.7329752E+00 -0.5302151E+00
 -0.1250654E+00 -0.1135985E+00 -0.6171889E-01  -0.4261682E+00 -0.7329752E+00 -0.5302151E+00
 -0.1921684E-01 -0.1337142E+00 -0.1189881E+00  -0.4261682E+00 -0.7329752E+00 -0.5302151E+00
 -0.1922502E-01 -0.1345694E+00 -0.1177993E+00  -0.4261682E+00 -0.7329752E+00 -0.5302151E+00
           6
 -0.1628672E-01  0.3198869E-01  0.1762573E+00   0.4974629E+00  0.2872106E+00  0.8185602E+00
  0.1955973E-01 -0.3009913E-01  0.1762573E+00   0.4974629E+00  0.2872106E+00  0.8185602E+00
  0.1254082E+00 -0.5021479E-01  0.1189882E+00   0.4974629E+00  0.2872106E+00  0.8185602E+00
  0.1609118E+00  0.5151072E-01  0.6171889E-01   0.4974629E+00  0.2872106E+00  0.8185602E+00
  0.1250654E+00  0.1135985E+00  0.6171889E-01   0.4974629E+00  0.2872106E+00  0.8185602E+00
  0.1921684E-01  0.1337142E+00  0.1189881E+00   0.4974629E+00  0.2872106E+00  0.8185602E+00
           6
  0.1258183E+00  0.1140331E+00  0.5934120E-01  -0.1915516E-02  0.9423768E+00 -0.3345479E+00
 -0.1955973E-01  0.3009913E-01 -0.1762573E+00  -0.1915516E-02  0.9423768E+00 -0.3345479E+00
 -0.1254082E+00  0.5021479E-01 -0.1189882E+00  -0.1915516E-02  0.9423768E+00 -0.3345479E+00
 -0.1261530E+00  0.5063535E-01 -0.1177992E+00  -0.1915516E-02  0.9423768E+00 -0.3345479E+00
  0.1922502E-01  0.1345694E+00  0.1177993E+00  -0.1915516E-02  0.9423768E+00 -0.3345479E+00
  0.1250735E+00  0.1144537E+00  0.6053012E-01  -0.1915516E-02  0.9423768E+00 -0.3345479E+00
           4
  0.1250654E+00  0.1135985E+00  0.6171889E-01   0.4261682E+00  0.7329752E+00  0.5302151E+00
  0.1250735E+00  0.1144537E+00  0.6053012E-01   0.4261682E+00  0.7329752E+00  0.5302151E+00
  0.1922502E-01  0.1345694E+00  0.1177993E+00   0.4261682E+00  0.7329752E+00  0.5302151E+00
  0.1921684E-01  0.1337142E+00  0.1189881E+00   0.4261682E+00  0.7329752E+00  0.5302151E+00
           6
  0.1616566E+00  0.5109016E-01  0.6052996E-01   0.8151646E+00 -0.4728469E+00 -0.3345483E+00
  0.1261530E+00 -0.5063535E-01  0.1177992E+00   0.8151646E+00 -0.4728469E+00 -0.3345483E+00
 -0.1922502E-01 -0.1345694E+00 -0.1177993E+00   0.8151646E+00 -0.4728469E+00 -0.3345483E+00
 -0.1921684E-01 -0.1337142E+00 -0.1189881E+00   0.8151646E+00 -0.4728469E+00 -0.3345483E+00
  0.1628672E-01 -0.3198869E-01 -0.1762573E+00   0.8151646E+00 -0.4728469E+00 -0.3345483E+00
  0.1616648E+00  0.5194532E-01  0.5934120E-01   0.8151646E+00 -0.4728469E+00 -0.3345483E+00
           4
  0.1254082E+00 -0.5021479E-01  0.1189882E+00   0.8478593E+00  0.2585439E-02  0.5302150E+00
  0.1261530E+00 -0.5063535E-01  0.1177992E+00   0.8478593E+00  0.2585439E-02  0.5302150E+00
  0.1616566E+00  0.5109016E-01  0.6052996E-01   0.8478593E+00  0.2585439E-02  0.5302150E+00
  0.1609118E+00  0.5151072E-01  0.6171889E-01   0.8478593E+00  0.2585439E-02  0.5302150E+00
           4
  0.1616648E+00  0.5194532E-01  0.5934120E-01   0.7053031E+00  0.4072073E+00 -0.5802843E+00
  0.1628672E-01 -0.3198869E-01 -0.1762573E+00   0.7053031E+00  0.4072073E+00 -0.5802843E+00
 -0.1955973E-01  0.3009913E-01 -0.1762573E+00   0.7053031E+00  0.4072073E+00 -0.5802843E+00
  0.1258183E+00  0.1140331E+00  0.5934120E-01   0.7053031E+00  0.4072073E+00 -0.5802843E+00
           6
  0.1250654E+00  0.1135985E+00  0.6171889E-01   0.8133591E+00  0.4695935E+00  0.3434077E+00
  0.1609118E+00  0.5151072E-01  0.6171889E-01   0.8133591E+00  0.4695935E+00  0.3434077E+00
  0.1616566E+00  0.5109016E-01  0.6052996E-01   0.8133591E+00  0.4695935E+00  0.3434077E+00
  0.1616648E+00  0.5194532E-01  0.5934120E-01   0.8133591E+00  0.4695935E+00  0.3434077E+00
  0.1258183E+00  0.1140331E+00  0.5934120E-01   0.8133591E+00  0.4695935E+00  0.3434077E+00
  0.1250735E+00  0.1144537E+00  0.6053012E-01   0.8133591E+00  0.4695935E+00  0.3434077E+00
 BRILLOUIN-ZONE-PRIMCELL_END
 BRILLOUIN-ZONE-CONVCELL
           6
 -0.1616566E+00 -0.5109016E-01 -0.6052996E-01  -0.8133591E+00 -0.4695935E+00 -0.3434077E+00
 -0.1609118E+00 -0.5151072E-01 -0.6171889E-01  -0.8133591E+00 -0.4695935E+00 -0.3434077E+00
 -0.1250654E+00 -0.1135985E+00 -0.6171889E-01  -0.8133591E+00 -0.4695935E+00 -0.3434077E+00
 -0.1250735E+00 -0.1144537E+00 -0.6053012E-01  -0.8133591E+00 -0.4695935E+00 -0.3434077E+00
 -0.1258183E+00 -0.1140331E+00 -0.5934120E-01  -0.8133591E+00 -0.4695935E+00 -0.3434077E+00
 -0.1616648E+00 -0.5194532E-01 -0.5934120E-01  -0.8133591E+00 -0.4695935E+00 -0.3434077E+00
           4
 -0.1628672E-01  0.3198869E-01  0.1762573E+00  -0.7053031E+00 -0.4072073E+00  0.5802843E+00
 -0.1616648E+00 -0.5194532E-01 -0.5934120E-01  -0.7053031E+00 -0.4072073E+00  0.5802843E+00
 -0.1258183E+00 -0.1140331E+00 -0.5934120E-01  -0.7053031E+00 -0.4072073E+00  0.5802843E+00
  0.1955973E-01 -0.3009913E-01  0.1762573E+00  -0.7053031E+00 -0.4072073E+00  0.5802843E+00
           6
  0.1922502E-01  0.1345694E+00  0.1177993E+00  -0.8151646E+00  0.4728469E+00  0.3345483E+00
 -0.1261530E+00  0.5063535E-01 -0.1177992E+00  -0.8151646E+00  0.4728469E+00  0.3345483E+00
 -0.1616566E+00 -0.5109016E-01 -0.6052996E-01  -0.8151646E+00  0.4728469E+00  0.3345483E+00
 -0.1616648E+00 -0.5194532E-01 -0.5934120E-01  -0.8151646E+00  0.4728469E+00  0.3345483E+00
 -0.1628672E-01  0.3198869E-01  0.1762573E+00  -0.8151646E+00  0.4728469E+00  0.3345483E+00
  0.1921684E-01  0.1337142E+00  0.1189881E+00  -0.8151646E+00  0.4728469E+00  0.3345483E+00
           6
  0.1254082E+00 -0.5021479E-01  0.1189882E+00   0.1915516E-02 -0.9423768E+00  0.3345479E+00
  0.1955973E-01 -0.3009913E-01  0.1762573E+00   0.1915516E-02 -0.9423768E+00  0.3345479E+00
 -0.1258183E+00 -0.1140331E+00 -0.5934120E-01   0.1915516E-02 -0.9423768E+00  0.3345479E+00
 -0.1250735E+00 -0.1144537E+00 -0.6053012E-01   0.1915516E-02 -0.9423768E+00  0.3345479E+00
 -0.1922502E-01 -0.1345694E+00 -0.1177993E+00   0.1915516E-02 -0.9423768E+00  0.3345479E+00
  0.1261530E+00 -0.5063535E-01  0.1177992E+00   0.1915516E-02 -0.9423768E+00  0.3345479E+00
           4
 -0.1261530E+00  0.5063535E-01 -0.1177992E+00  -0.8478593E+00 -0.2585439E-02 -0.5302150E+00
 -0.1254082E+00  0.5021479E-01 -0.1189882E+00  -0.8478593E+00 -0.2585439E-02 -0.5302150E+00
 -0.1609118E+00 -0.5151072E-01 -0.6171889E-01  -0.8478593E+00 -0.2585439E-02 -0.5302150E+00
 -0.1616566E+00 -0.5109016E-01 -0.6052996E-01  -0.8478593E+00 -0.2585439E-02 -0.5302150E+00
           6
 -0.1254082E+00  0.5021479E-01 -0.1189882E+00  -0.4974629E+00 -0.2872106E+00 -0.8185602E+00
 -0.1955973E-01  0.3009913E-01 -0.1762573E+00  -0.4974629E+00 -0.2872106E+00 -0.8185602E+00
  0.1628672E-01 -0.3198869E-01 -0.1762573E+00  -0.4974629E+00 -0.2872106E+00 -0.8185602E+00
 -0.1921684E-01 -0.1337142E+00 -0.1189881E+00  -0.4974629E+00 -0.2872106E+00 -0.8185602E+00
 -0.1250654E+00 -0.1135985E+00 -0.6171889E-01  -0.4974629E+00 -0.2872106E+00 -0.8185602E+00
 -0.1609118E+00 -0.5151072E-01 -0.6171889E-01  -0.4974629E+00 -0.2872106E+00 -0.8185602E+00
           4
 -0.1250735E+00 -0.1144537E+00 -0.6053012E-01  -0.4261682E+00 -0.7329752E+00 -0.5302151E+00
 -0.1250654E+00 -0.1135985E+00 -0.6171889E-01  -0.4261682E+00 -0.7329752E+00 -0.5302151E+00
 -0.1921684E-01 -0.1337142E+00 -0.1189881E+00  -0.4261682E+00 -0.7329752E+00 -0.5302151E+00
 -0.1922502E-01 -0.1345694E+00 -0.1177993E+00  -0.4261682E+00 -0.7329752E+00 -0.5302151E+00
           6
 -0.1628672E-01  0.3198869E-01  0.1762573E+00   0.4974629E+00  0.2872106E+00  0.8185602E+00
  0.1955973E-01 -0.3009913E-01  0.1762573E+00   0.4974629E+00  0.2872106E+00  0.8185602E+00
  0.1254082E+00 -0.5021479E-01  0.1189882E+00   0.4974629E+00  0.2872106E+00  0.8185602E+00
  0.1609118E+00  0.5151072E-01  0.6171889E-01   0.4974629E+00  0.2872106E+00  0.8185602E+00
  0.1250654E+00  0.1135985E+00  0.6171889E-01   0.4974629E+00  0.2872106E+00  0.8185602E+00
  0.1921684E-01  0.1337142E+00  0.1189881E+00   0.4974629E+00  0.2872106E+00  0.8185602E+00
           6
  0.1258183E+00  0.1140331E+00  0.5934120E-01  -0.1915516E-02  0.9423768E+00 -0.3345479E+00
 -0.1955973E-01  0.3009913E-01 -0.1762573E+00  -0.1915516E-02  0.9423768E+00 -0.3345479E+00
 -0.1254082E+00  0.5021479E-01 -0.1189882E+00  -0.1915516E-02  0.9423768E+00 -0.3345479E+00
 -0.1261530E+00  0.5063535E-01 -0.1177992E+00  -0.1915516E-02  0.9423768E+00 -0.3345479E+00
  0.1922502E-01  0.1345694E+00  0.1177993E+00  -0.1915516E-02  0.9423768E+00 -0.3345479E+00
  0.1250735E+00  0.1144537E+00  0.6053012E-01  -0.1915516E-02  0.9423768E+00 -0.3345479E+00
           4
  0.1250654E+00  0.1135985E+00  0.6171889E-01   0.4261682E+00  0.7329752E+00  0.5302151E+00
  0.1250735E+00  0.1144537E+00  0.6053012E-01   0.4261682E+00  0.7329752E+00  0.5302151E+00
  0.1922502E-01  0.1345694E+00  0.1177993E+00   0.4261682E+00  0.7329752E+00  0.5302151E+00
  0.1921684E-01  0.1337142E+00  0.1189881E+00   0.4261682E+00  0.7329752E+00  0.5302151E+00
           6
  0.1616566E+00  0.5109016E-01  0.6052996E-01   0.8151646E+00 -0.4728469E+00 -0.3345483E+00
  0.1261530E+00 -0.5063535E-01  0.1177992E+00   0.8151646E+00 -0.4728469E+00 -0.3345483E+00
 -0.1922502E-01 -0.1345694E+00 -0.1177993E+00   0.8151646E+00 -0.4728469E+00 -0.3345483E+00
 -0.1921684E-01 -0.1337142E+00 -0.1189881E+00   0.8151646E+00 -0.4728469E+00 -0.3345483E+00
  0.1628672E-01 -0.3198869E-01 -0.1762573E+00   0.8151646E+00 -0.4728469E+00 -0.3345483E+00
  0.1616648E+00  0.5194532E-01  0.5934120E-01   0.8151646E+00 -0.4728469E+00 -0.3345483E+00
           4
  0.1254082E+00 -0.5021479E-01  0.1189882E+00   0.8478593E+00  0.2585439E-02  0.5302150E+00
  0.1261530E+00 -0.5063535E-01  0.1177992E+00   0.8478593E+00  0.2585439E-02  0.5302150E+00
  0.1616566E+00  0.5109016E-01  0.6052996E-01   0.8478593E+00  0.2585439E-02  0.5302150E+00
  0.1609118E+00  0.5151072E-01  0.6171889E-01   0.8478593E+00  0.2585439E-02  0.5302150E+00
           4
  0.1616648E+00  0.5194532E-01  0.5934120E-01   0.7053031E+00  0.4072073E+00 -0.5802843E+00
  0.1628672E-01 -0.3198869E-01 -0.1762573E+00   0.7053031E+00  0.4072073E+00 -0.5802843E+00
 -0.1955973E-01  0.3009913E-01 -0.1762573E+00   0.7053031E+00  0.4072073E+00 -0.5802843E+00
  0.1258183E+00  0.1140331E+00  0.5934120E-01   0.7053031E+00  0.4072073E+00 -0.5802843E+00
           6
  0.1250654E+00  0.1135985E+00  0.6171889E-01   0.8133591E+00  0.4695935E+00  0.3434077E+00
  0.1609118E+00  0.5151072E-01  0.6171889E-01   0.8133591E+00  0.4695935E+00  0.3434077E+00
  0.1616566E+00  0.5109016E-01  0.6052996E-01   0.8133591E+00  0.4695935E+00  0.3434077E+00
  0.1616648E+00  0.5194532E-01  0.5934120E-01   0.8133591E+00  0.4695935E+00  0.3434077E+00
  0.1258183E+00  0.1140331E+00  0.5934120E-01   0.8133591E+00  0.4695935E+00  0.3434077E+00
  0.1250735E+00  0.1144537E+00  0.6053012E-01   0.8133591E+00  0.4695935E+00  0.3434077E+00
 BRILLOUIN-ZONE-CONVCELL_END
 ATOMS
   25    5.2248168640    3.0165493620    2.0769643620   -0.0008846000   -0.0005106200    0.0006659200
   25    6.9728770290    6.0476876710    2.0521226110   -0.0008849700   -0.0005100300    0.0006659300
   25    8.7238884700    3.0148452510    2.0521230300   -0.0008840300   -0.0005112200    0.0006657600
   25   10.4719472650    6.0459825170    2.0272825950   -0.0008838400   -0.0005104300    0.0006654500