
     Program PWSCF v.7.3.1 starts on 31Jan2025 at 19:42: 0 

     This program is part of the open-source Quantum ESPRESSO suite
     for quantum simulation of materials; please cite
         "P. Giannozzi et al., J. Phys.:Condens. Matter 21 395502 (2009);
         "P. Giannozzi et al., J. Phys.:Condens. Matter 29 465901 (2017);
         "P. Giannozzi et al., J. Chem. Phys. 152 154105 (2020);
          URL http://www.quantum-espresso.org", 
     in publications or presentations arising from this work. More details at
     http://www.quantum-espresso.org/quote

     Parallel version (MPI), running on     6 processors

     MPI processes distributed on     1 nodes
     1678 MiB available memory on the printing compute node when the environment starts

     Reading input from vc_relax.in

     Current dimensions of program PWSCF are:
     Max number of different atomic species (ntypx) = 10
     Max number of k-points (npk) =  40000
     Max angular momentum in pseudopotentials (lmaxx) =  4
     file Mn.pbe-spn-kjpaw_psl.0.3.1.UPF: wavefunction(s)  3P 3D renormalized
     file Mn.pbe-spn-kjpaw_psl.0.3.1.UPF: wavefunction(s)  3P 3D renormalized
     file Mn.pbe-spn-kjpaw_psl.0.3.1.UPF: wavefunction(s)  3P 3D renormalized
     file Mn.pbe-spn-kjpaw_psl.0.3.1.UPF: wavefunction(s)  3P 3D renormalized
     file S.pbe-n-kjpaw_psl.1.0.0.UPF: wavefunction(s)  3S 3P renormalized

     R & G space division:  proc/nbgrp/npool/nimage =       6
     Subspace diagonalization in iterative solution of the eigenvalue problem:
     a serial algorithm will be used


     Parallelization info
     --------------------
     sticks:   dense  smooth     PW     G-vecs:    dense   smooth      PW
     Min         374     300     92                 5900     4227     706
     Max         375     301     93                 5902     4229     707
     Sum        2245    1801    555                35405    25365    4237

     Using Slab Decomposition



     bravais-lattice index     =            0
     lattice parameter (alat)  =      14.7866  a.u.
     unit-cell volume          =    1143.0296 (a.u.)^3
     number of atoms/cell      =            8
     number of atomic types    =            5
     number of electrons       =        84.00
     number of Kohn-Sham states=           50
     kinetic-energy cutoff     =      30.0000  Ry
     charge density cutoff     =     150.0000  Ry
     scf convergence threshold =      1.0E-10
     mixing beta               =       0.7000
     number of iterations used =            8  plain     mixing
     energy convergence thresh.=      1.0E-05
     force convergence thresh. =      1.0E-04
     press convergence thresh. =      5.0E-01
     Exchange-correlation= SLA  PW   PBX  PBC
                           (   1   4   3   4   0   0   0)
     nstep                     =           50


     celldm(1)=  14.786571  celldm(2)=   0.000000  celldm(3)=   0.000000
     celldm(4)=   0.000000  celldm(5)=   0.000000  celldm(6)=   0.000000

     crystal axes: (cart. coord. in units of alat)
               a(1) = (   1.000000   0.000000   0.000000 )  
               a(2) = (   0.500000   0.866025   0.000000 )  
               a(3) = (   0.250000   0.144338   0.408248 )  

     reciprocal axes: (cart. coord. in units 2 pi/alat)
               b(1) = (  1.000000 -0.577350 -0.408248 )  
               b(2) = (  0.000000  1.154700 -0.408248 )  
               b(3) = (  0.000000  0.000000  2.449490 )  


     PseudoPot. # 1 for Mn read from file:
     ./../../../pseudos/Mn.pbe-spn-kjpaw_psl.0.3.1.UPF
     MD5 check sum: ba19e6d7ccbc12830efad05ba8577d9c
     Pseudo is Projector augmented-wave + core cor, Zval = 15.0
     Generated using &quot;atomic&quot; code by A. Dal Corso  v.6.2.2
     Shape of augmentation charge: PSQ
     Using radial grid of 1187 points,  6 beta functions with: 
                l(1) =   0
                l(2) =   0
                l(3) =   1
                l(4) =   1
                l(5) =   2
                l(6) =   2
     Q(r) pseudized with 0 coefficients 


     PseudoPot. # 2 for Mn read from file:
     ./../../../pseudos/Mn.pbe-spn-kjpaw_psl.0.3.1.UPF
     MD5 check sum: ba19e6d7ccbc12830efad05ba8577d9c
     Pseudo is Projector augmented-wave + core cor, Zval = 15.0
     Generated using &quot;atomic&quot; code by A. Dal Corso  v.6.2.2
     Shape of augmentation charge: PSQ
     Using radial grid of 1187 points,  6 beta functions with: 
                l(1) =   0
                l(2) =   0
                l(3) =   1
                l(4) =   1
                l(5) =   2
                l(6) =   2
     Q(r) pseudized with 0 coefficients 


     PseudoPot. # 3 for Mn read from file:
     ./../../../pseudos/Mn.pbe-spn-kjpaw_psl.0.3.1.UPF
     MD5 check sum: ba19e6d7ccbc12830efad05ba8577d9c
     Pseudo is Projector augmented-wave + core cor, Zval = 15.0
     Generated using &quot;atomic&quot; code by A. Dal Corso  v.6.2.2
     Shape of augmentation charge: PSQ
     Using radial grid of 1187 points,  6 beta functions with: 
                l(1) =   0
                l(2) =   0
                l(3) =   1
                l(4) =   1
                l(5) =   2
                l(6) =   2
     Q(r) pseudized with 0 coefficients 


     PseudoPot. # 4 for Mn read from file:
     ./../../../pseudos/Mn.pbe-spn-kjpaw_psl.0.3.1.UPF
     MD5 check sum: ba19e6d7ccbc12830efad05ba8577d9c
     Pseudo is Projector augmented-wave + core cor, Zval = 15.0
     Generated using &quot;atomic&quot; code by A. Dal Corso  v.6.2.2
     Shape of augmentation charge: PSQ
     Using radial grid of 1187 points,  6 beta functions with: 
                l(1) =   0
                l(2) =   0
                l(3) =   1
                l(4) =   1
                l(5) =   2
                l(6) =   2
     Q(r) pseudized with 0 coefficients 


     PseudoPot. # 5 for S  read from file:
     ./../../../pseudos/S.pbe-n-kjpaw_psl.1.0.0.UPF
     MD5 check sum: fb45dfebcf3e72a4e1bd4a866ec2e262
     Pseudo is Projector augmented-wave + core cor, Zval =  6.0
     Generated using &quot;atomic&quot; code by A. Dal Corso  v.6.3
     Shape of augmentation charge: PSQ
     Using radial grid of 1151 points,  6 beta functions with: 
                l(1) =   0
                l(2) =   0
                l(3) =   1
                l(4) =   1
                l(5) =   2
                l(6) =   2
     Q(r) pseudized with 0 coefficients 


     atomic species   valence    mass     pseudopotential
     Mn1              15.00    54.93800     Mn( 1.00)
     Mn2              15.00    54.93800     Mn( 1.00)
     Mn3              15.00    54.93800     Mn( 1.00)
     Mn4              15.00    54.93800     Mn( 1.00)
     S                 6.00    32.06500     S ( 1.00)

     No symmetry found


                                    s                        frac. trans.

      isym =  1     identity                                     

 cryst.   s( 1) = (     1          0          0      )
                  (     0          1          0      )
                  (     0          0          1      )

 cart.    s( 1) = (  1.0000000  0.0000000  0.0000000 )
                  (  0.0000000  1.0000000  0.0000000 )
                  (  0.0000000  0.0000000  1.0000000 )


   Cartesian axes

     site n.     atom                  positions (alat units)
         1        Mn1    tau(   1) = (   0.7496458   0.4328080   0.3071081  )
         2        Mn2    tau(   2) = (   0.9996457   0.8658209   0.3071080  )
         3        Mn3    tau(   3) = (   1.2496455   0.4328080   0.3071082  )
         4        Mn4    tau(   4) = (   1.4996455   0.8658211   0.3071080  )
         5        S      tau(   5) = (   0.2503542   0.1445421   0.4073265  )
         6        S      tau(   6) = (   0.5003543   0.5775549   0.4073264  )
         7        S      tau(   7) = (   0.7503543   0.1445421   0.4073265  )
         8        S      tau(   8) = (   1.0003542   0.5775549   0.4073265  )

   Crystallographic axes

     site n.     atom                  positions (cryst. coord.)
         1        Mn1    tau(   1) = (  0.3743877  0.3743872  0.7522580  )
         2        Mn2    tau(   2) = (  0.3743875  0.8743876  0.7522579  )
         3        Mn3    tau(   3) = (  0.8743873  0.3743873  0.7522582  )
         4        Mn4    tau(   4) = (  0.8743873  0.8743877  0.7522578  )
         5        S      tau(   5) = (  0.0006125  0.0006125  0.9977421  )
         6        S      tau(   6) = (  0.0006126  0.5006126  0.9977419  )
         7        S      tau(   7) = (  0.5006126  0.0006125  0.9977419  )
         8        S      tau(   8) = (  0.5006125  0.5006126  0.9977421  )

     number of k points=    23  Gaussian smearing, width (Ry)=  0.0100
                       cart. coord. in units 2pi/alat
        k(    1) = (   0.0000000   0.0000000   0.0000000), wk =   0.0444444
        k(    2) = (   0.0000000   0.0000000   0.4898979), wk =   0.0888889
        k(    3) = (   0.0000000   0.0000000   0.9797958), wk =   0.0888889
        k(    4) = (   0.0000000   0.3849002  -0.1360827), wk =   0.0888889
        k(    5) = (   0.0000000   0.3849002   0.3538152), wk =   0.0888889
        k(    6) = (   0.0000000   0.3849002   0.8437131), wk =   0.0888889
        k(    7) = (   0.0000000   0.3849002  -1.1158786), wk =   0.0888889
        k(    8) = (   0.0000000   0.3849002  -0.6259807), wk =   0.0888889
        k(    9) = (   0.3333333   0.1924501  -0.2721655), wk =   0.0888889
        k(   10) = (   0.3333333   0.1924501   0.2177324), wk =   0.0888889
        k(   11) = (   0.3333333   0.1924501   0.7076304), wk =   0.0888889
        k(   12) = (   0.3333333   0.1924501  -1.2519613), wk =   0.0888889
        k(   13) = (   0.3333333   0.1924501  -0.7620634), wk =   0.0888889
        k(   14) = (   0.3333333  -0.5773502   0.0000000), wk =   0.0888889
        k(   15) = (   0.3333333  -0.5773502   0.4898979), wk =   0.0888889
        k(   16) = (   0.3333333  -0.5773502   0.9797959), wk =   0.0888889
        k(   17) = (  -0.3333333   0.1924501   0.1360827), wk =   0.0888889
        k(   18) = (  -0.3333333   0.1924501  -0.3538152), wk =   0.0888889
        k(   19) = (  -0.3333333   0.1924501  -0.8437131), wk =   0.0888889
        k(   20) = (  -0.3333333   0.1924501   1.1158786), wk =   0.0888889
        k(   21) = (  -0.3333333   0.1924501   0.6259807), wk =   0.0888889
        k(   22) = (   0.3333333  -0.5773502  -0.4898979), wk =   0.0888889
        k(   23) = (   0.3333333  -0.5773502  -0.9797958), wk =   0.0888889

                       cryst. coord.
        k(    1) = (   0.0000000   0.0000000   0.0000000), wk =   0.0444444
        k(    2) = (   0.0000000   0.0000000   0.2000000), wk =   0.0888889
        k(    3) = (   0.0000000   0.0000000   0.4000000), wk =   0.0888889
        k(    4) = (   0.0000000   0.3333333   0.0000000), wk =   0.0888889
        k(    5) = (   0.0000000   0.3333333   0.2000000), wk =   0.0888889
        k(    6) = (   0.0000000   0.3333333   0.4000000), wk =   0.0888889
        k(    7) = (   0.0000000   0.3333333  -0.4000000), wk =   0.0888889
        k(    8) = (   0.0000000   0.3333333  -0.2000000), wk =   0.0888889
        k(    9) = (   0.3333333   0.3333333   0.0000000), wk =   0.0888889
        k(   10) = (   0.3333333   0.3333333   0.2000000), wk =   0.0888889
        k(   11) = (   0.3333333   0.3333333   0.4000000), wk =   0.0888889
        k(   12) = (   0.3333333   0.3333333  -0.4000000), wk =   0.0888889
        k(   13) = (   0.3333333   0.3333333  -0.2000000), wk =   0.0888889
        k(   14) = (   0.3333333  -0.3333333   0.0000000), wk =   0.0888889
        k(   15) = (   0.3333333  -0.3333333   0.2000000), wk =   0.0888889
        k(   16) = (   0.3333333  -0.3333333   0.4000000), wk =   0.0888889
        k(   17) = (  -0.3333333   0.0000000  -0.0000000), wk =   0.0888889
        k(   18) = (  -0.3333333   0.0000000  -0.2000000), wk =   0.0888889
        k(   19) = (  -0.3333333   0.0000000  -0.4000000), wk =   0.0888889
        k(   20) = (  -0.3333333   0.0000000   0.4000000), wk =   0.0888889
        k(   21) = (  -0.3333333   0.0000000   0.2000000), wk =   0.0888889
        k(   22) = (   0.3333333  -0.3333333  -0.2000000), wk =   0.0888889
        k(   23) = (   0.3333333  -0.3333333  -0.4000000), wk =   0.0888889

     Dense  grid:    35405 G-vectors     FFT dimensions: (  60,  60,  30)

     Smooth grid:    25365 G-vectors     FFT dimensions: (  54,  54,  25)

     Dynamical RAM for                 wfc:       0.40 MB

     Dynamical RAM for     wfc (w. buffer):       9.67 MB

     Dynamical RAM for           str. fact:       0.45 MB

     Dynamical RAM for           local pot:       0.00 MB

     Dynamical RAM for          nlocal pot:       1.16 MB

     Dynamical RAM for                qrad:       9.84 MB

     Dynamical RAM for          rho,v,vnew:       0.68 MB

     Dynamical RAM for               rhoin:       0.23 MB

     Dynamical RAM for            rho*nmix:       1.44 MB

     Dynamical RAM for           G-vectors:       0.37 MB

     Dynamical RAM for          h,s,v(r/c):       0.46 MB

     Dynamical RAM for          <psi|beta>:       0.11 MB

     Dynamical RAM for                 psi:       0.81 MB

     Dynamical RAM for                hpsi:       0.81 MB

     Dynamical RAM for                spsi:       0.81 MB

     Dynamical RAM for      wfcinit/wfcrot:       0.97 MB

     Dynamical RAM for           addusdens:      17.11 MB

     Dynamical RAM for          addusforce:      17.71 MB

     Dynamical RAM for         addusstress:      18.10 MB

     Estimated static dynamical RAM per process >      23.63 MB

     Estimated max dynamical RAM per process >      43.17 MB

     Estimated total dynamical RAM >     259.01 MB

     Check: negative core charge=   -0.000237

     Initial potential from superposition of free atoms

     starting charge      83.9979, renormalised to      84.0000
     Starting wfcs are   56 randomized atomic wfcs
     Checking if some PAW data can be deallocated... 
       PAW data deallocated on    5 nodes for type:  1
       PAW data deallocated on    5 nodes for type:  2
       PAW data deallocated on    5 nodes for type:  3
       PAW data deallocated on    5 nodes for type:  4
       PAW data deallocated on    2 nodes for type:  5

     total cpu time spent up to now is        3.4 secs

     Self-consistent Calculation

     iteration #  1     ecut=    30.00 Ry     beta= 0.70
     Davidson diagonalization with overlap

---- Real-time Memory Report at c_bands before calling an iterative solver
            76 MiB given to the printing process from OS
             0 MiB allocation reported by mallinfo(arena+hblkhd)
          1324 MiB available memory on the node where the printing process lives
------------------
     ethr =  1.00E-02,  avg # of iterations =  2.0

     Threshold (ethr) on eigenvalues was too large:
     Diagonalizing with lowered threshold

     Davidson diagonalization with overlap

---- Real-time Memory Report at c_bands before calling an iterative solver
            86 MiB given to the printing process from OS
             0 MiB allocation reported by mallinfo(arena+hblkhd)
          1269 MiB available memory on the node where the printing process lives
------------------
     ethr =  4.27E-04,  avg # of iterations =  4.0

     total cpu time spent up to now is       13.8 secs

     total energy              =   -1410.59228489 Ry
     estimated scf accuracy    <       0.26404894 Ry

     iteration #  2     ecut=    30.00 Ry     beta= 0.70
     Davidson diagonalization with overlap

---- Real-time Memory Report at c_bands before calling an iterative solver
            86 MiB given to the printing process from OS
             0 MiB allocation reported by mallinfo(arena+hblkhd)
          1290 MiB available memory on the node where the printing process lives
------------------
     ethr =  3.14E-04,  avg # of iterations =  4.9

     total cpu time spent up to now is       20.2 secs

     total energy              =   -1410.35072061 Ry
     estimated scf accuracy    <       2.03344816 Ry

     iteration #  3     ecut=    30.00 Ry     beta= 0.70
     Davidson diagonalization with overlap

---- Real-time Memory Report at c_bands before calling an iterative solver
            86 MiB given to the printing process from OS
             0 MiB allocation reported by mallinfo(arena+hblkhd)
          1318 MiB available memory on the node where the printing process lives
------------------
     ethr =  3.14E-04,  avg # of iterations =  7.0

     total cpu time spent up to now is       27.7 secs

     total energy              =   -1410.16161028 Ry
     estimated scf accuracy    <      20.18316614 Ry

     iteration #  4     ecut=    30.00 Ry     beta= 0.70
     Davidson diagonalization with overlap

---- Real-time Memory Report at c_bands before calling an iterative solver
            86 MiB given to the printing process from OS
             0 MiB allocation reported by mallinfo(arena+hblkhd)
          1321 MiB available memory on the node where the printing process lives
------------------
     ethr =  3.14E-04,  avg # of iterations =  7.5

     total cpu time spent up to now is       35.4 secs

     total energy              =   -1410.31849539 Ry
     estimated scf accuracy    <      11.28220128 Ry

     iteration #  5     ecut=    30.00 Ry     beta= 0.70
     Davidson diagonalization with overlap

---- Real-time Memory Report at c_bands before calling an iterative solver
            87 MiB given to the printing process from OS
             0 MiB allocation reported by mallinfo(arena+hblkhd)
          1325 MiB available memory on the node where the printing process lives
------------------
     ethr =  3.14E-04,  avg # of iterations =  6.0

     total cpu time spent up to now is       42.1 secs

     total energy              =   -1410.54399526 Ry
     estimated scf accuracy    <       3.33693812 Ry

     iteration #  6     ecut=    30.00 Ry     beta= 0.70
     Davidson diagonalization with overlap

---- Real-time Memory Report at c_bands before calling an iterative solver
            87 MiB given to the printing process from OS
             0 MiB allocation reported by mallinfo(arena+hblkhd)
          1327 MiB available memory on the node where the printing process lives
------------------
     ethr =  3.14E-04,  avg # of iterations =  5.3

     total cpu time spent up to now is       47.5 secs

     total energy              =   -1410.52225782 Ry
     estimated scf accuracy    <       7.78286873 Ry

     iteration #  7     ecut=    30.00 Ry     beta= 0.70
     Davidson diagonalization with overlap

---- Real-time Memory Report at c_bands before calling an iterative solver
            87 MiB given to the printing process from OS
             0 MiB allocation reported by mallinfo(arena+hblkhd)
          1330 MiB available memory on the node where the printing process lives
------------------
     ethr =  3.14E-04,  avg # of iterations =  2.0

     total cpu time spent up to now is       52.1 secs

     total energy              =   -1410.63984833 Ry
     estimated scf accuracy    <       0.17106857 Ry

     iteration #  8     ecut=    30.00 Ry     beta= 0.70
     Davidson diagonalization with overlap

---- Real-time Memory Report at c_bands before calling an iterative solver
            87 MiB given to the printing process from OS
             0 MiB allocation reported by mallinfo(arena+hblkhd)
          1328 MiB available memory on the node where the printing process lives
------------------
     ethr =  2.04E-04,  avg # of iterations =  1.4

     total cpu time spent up to now is       56.5 secs

     total energy              =   -1410.64226809 Ry
     estimated scf accuracy    <       0.04520757 Ry

     iteration #  9     ecut=    30.00 Ry     beta= 0.70
     Davidson diagonalization with overlap

---- Real-time Memory Report at c_bands before calling an iterative solver
            87 MiB given to the printing process from OS
             0 MiB allocation reported by mallinfo(arena+hblkhd)
          1325 MiB available memory on the node where the printing process lives
------------------
     ethr =  5.38E-05,  avg # of iterations =  5.7

     total cpu time spent up to now is       61.9 secs

     total energy              =   -1410.64566591 Ry
     estimated scf accuracy    <       0.01988845 Ry

     iteration # 10     ecut=    30.00 Ry     beta= 0.70
     Davidson diagonalization with overlap

---- Real-time Memory Report at c_bands before calling an iterative solver
            87 MiB given to the printing process from OS
             0 MiB allocation reported by mallinfo(arena+hblkhd)
          1325 MiB available memory on the node where the printing process lives
------------------
     ethr =  2.37E-05,  avg # of iterations =  2.0

     total cpu time spent up to now is       66.4 secs

     total energy              =   -1410.64597579 Ry
     estimated scf accuracy    <       0.00900117 Ry

     iteration # 11     ecut=    30.00 Ry     beta= 0.70
     Davidson diagonalization with overlap

---- Real-time Memory Report at c_bands before calling an iterative solver
            87 MiB given to the printing process from OS
             0 MiB allocation reported by mallinfo(arena+hblkhd)
          1324 MiB available memory on the node where the printing process lives
------------------
     ethr =  1.07E-05,  avg # of iterations =  1.6

     total cpu time spent up to now is       70.8 secs

     total energy              =   -1410.64609183 Ry
     estimated scf accuracy    <       0.00588477 Ry

     iteration # 12     ecut=    30.00 Ry     beta= 0.70
     Davidson diagonalization with overlap

---- Real-time Memory Report at c_bands before calling an iterative solver
            87 MiB given to the printing process from OS
             0 MiB allocation reported by mallinfo(arena+hblkhd)
          1324 MiB available memory on the node where the printing process lives
------------------
     ethr =  7.01E-06,  avg # of iterations =  2.0

     total cpu time spent up to now is       75.2 secs

     total energy              =   -1410.64615675 Ry
     estimated scf accuracy    <       0.00094366 Ry

     iteration # 13     ecut=    30.00 Ry     beta= 0.70
     Davidson diagonalization with overlap

---- Real-time Memory Report at c_bands before calling an iterative solver
            87 MiB given to the printing process from OS
             0 MiB allocation reported by mallinfo(arena+hblkhd)
          1323 MiB available memory on the node where the printing process lives
------------------
     ethr =  1.12E-06,  avg # of iterations =  4.3

     total cpu time spent up to now is       80.3 secs

     total energy              =   -1410.64622003 Ry
     estimated scf accuracy    <       0.00004014 Ry

     iteration # 14     ecut=    30.00 Ry     beta= 0.70
     Davidson diagonalization with overlap

---- Real-time Memory Report at c_bands before calling an iterative solver
            87 MiB given to the printing process from OS
             0 MiB allocation reported by mallinfo(arena+hblkhd)
          1326 MiB available memory on the node where the printing process lives
------------------
     ethr =  4.78E-08,  avg # of iterations =  6.2

     total cpu time spent up to now is       86.8 secs

     total energy              =   -1410.64623706 Ry
     estimated scf accuracy    <       0.00009985 Ry

     iteration # 15     ecut=    30.00 Ry     beta= 0.70
     Davidson diagonalization with overlap

---- Real-time Memory Report at c_bands before calling an iterative solver
            87 MiB given to the printing process from OS
             0 MiB allocation reported by mallinfo(arena+hblkhd)
          1326 MiB available memory on the node where the printing process lives
------------------
     ethr =  4.78E-08,  avg # of iterations =  1.0

     total cpu time spent up to now is       91.0 secs

     total energy              =   -1410.64623732 Ry
     estimated scf accuracy    <       0.00002501 Ry

     iteration # 16     ecut=    30.00 Ry     beta= 0.70
     Davidson diagonalization with overlap

---- Real-time Memory Report at c_bands before calling an iterative solver
            87 MiB given to the printing process from OS
             0 MiB allocation reported by mallinfo(arena+hblkhd)
          1320 MiB available memory on the node where the printing process lives
------------------
     ethr =  2.98E-08,  avg # of iterations =  1.0

     total cpu time spent up to now is       95.2 secs

     total energy              =   -1410.64623770 Ry
     estimated scf accuracy    <       0.00000714 Ry

     iteration # 17     ecut=    30.00 Ry     beta= 0.70
     Davidson diagonalization with overlap

---- Real-time Memory Report at c_bands before calling an iterative solver
            87 MiB given to the printing process from OS
             0 MiB allocation reported by mallinfo(arena+hblkhd)
          1322 MiB available memory on the node where the printing process lives
------------------
     ethr =  8.50E-09,  avg # of iterations =  1.2

     total cpu time spent up to now is       99.5 secs

     total energy              =   -1410.64623775 Ry
     estimated scf accuracy    <       0.00000571 Ry

     iteration # 18     ecut=    30.00 Ry     beta= 0.70
     Davidson diagonalization with overlap

---- Real-time Memory Report at c_bands before calling an iterative solver
            87 MiB given to the printing process from OS
             0 MiB allocation reported by mallinfo(arena+hblkhd)
          1319 MiB available memory on the node where the printing process lives
------------------
     ethr =  6.79E-09,  avg # of iterations =  1.7

     total cpu time spent up to now is      103.9 secs

     total energy              =   -1410.64623797 Ry
     estimated scf accuracy    <       0.00000109 Ry

     iteration # 19     ecut=    30.00 Ry     beta= 0.70
     Davidson diagonalization with overlap

---- Real-time Memory Report at c_bands before calling an iterative solver
            87 MiB given to the printing process from OS
             0 MiB allocation reported by mallinfo(arena+hblkhd)
          1318 MiB available memory on the node where the printing process lives
------------------
     ethr =  1.30E-09,  avg # of iterations =  5.0

     total cpu time spent up to now is      109.1 secs

     total energy              =   -1410.64623806 Ry
     estimated scf accuracy    <       0.00000014 Ry

     iteration # 20     ecut=    30.00 Ry     beta= 0.70
     Davidson diagonalization with overlap

---- Real-time Memory Report at c_bands before calling an iterative solver
            87 MiB given to the printing process from OS
             0 MiB allocation reported by mallinfo(arena+hblkhd)
          1321 MiB available memory on the node where the printing process lives
------------------
     ethr =  1.70E-10,  avg # of iterations =  5.0

     total cpu time spent up to now is      114.6 secs

     total energy              =   -1410.64623809 Ry
     estimated scf accuracy    <       0.00000004 Ry

     iteration # 21     ecut=    30.00 Ry     beta= 0.70
     Davidson diagonalization with overlap

---- Real-time Memory Report at c_bands before calling an iterative solver
            87 MiB given to the printing process from OS
             0 MiB allocation reported by mallinfo(arena+hblkhd)
          1317 MiB available memory on the node where the printing process lives
------------------
     ethr =  4.74E-11,  avg # of iterations =  2.4

     total cpu time spent up to now is      119.3 secs

     total energy              =   -1410.64623809 Ry
     estimated scf accuracy    <          3.7E-09 Ry

     iteration # 22     ecut=    30.00 Ry     beta= 0.70
     Davidson diagonalization with overlap

---- Real-time Memory Report at c_bands before calling an iterative solver
            87 MiB given to the printing process from OS
             0 MiB allocation reported by mallinfo(arena+hblkhd)
          1316 MiB available memory on the node where the printing process lives
------------------
     ethr =  4.41E-12,  avg # of iterations =  4.6

     total cpu time spent up to now is      125.2 secs

     total energy              =   -1410.64623809 Ry
     estimated scf accuracy    <          2.9E-09 Ry

     iteration # 23     ecut=    30.00 Ry     beta= 0.70
     Davidson diagonalization with overlap

---- Real-time Memory Report at c_bands before calling an iterative solver
            87 MiB given to the printing process from OS
             0 MiB allocation reported by mallinfo(arena+hblkhd)
          1318 MiB available memory on the node where the printing process lives
------------------
     ethr =  3.47E-12,  avg # of iterations =  1.2

     total cpu time spent up to now is      129.5 secs

     total energy              =   -1410.64623809 Ry
     estimated scf accuracy    <          9.1E-10 Ry

     iteration # 24     ecut=    30.00 Ry     beta= 0.70
     Davidson diagonalization with overlap

---- Real-time Memory Report at c_bands before calling an iterative solver
            87 MiB given to the printing process from OS
             0 MiB allocation reported by mallinfo(arena+hblkhd)
          1316 MiB available memory on the node where the printing process lives
------------------
     ethr =  1.08E-12,  avg # of iterations =  2.4

     total cpu time spent up to now is      134.1 secs

     total energy              =   -1410.64623809 Ry
     estimated scf accuracy    <          2.4E-10 Ry

     iteration # 25     ecut=    30.00 Ry     beta= 0.70
     Davidson diagonalization with overlap

---- Real-time Memory Report at c_bands before calling an iterative solver
            87 MiB given to the printing process from OS
             0 MiB allocation reported by mallinfo(arena+hblkhd)
          1314 MiB available memory on the node where the printing process lives
------------------
     ethr =  2.85E-13,  avg # of iterations =  3.6

     total cpu time spent up to now is      138.9 secs

     End of self-consistent calculation

          k = 0.0000 0.0000 0.0000 (  3203 PWs)   bands (ev):

   -72.2483 -72.2478 -72.2478 -72.2476 -40.9923 -40.9919 -40.9919 -40.9903
   -40.9901 -40.9901 -40.9894 -40.9881 -40.9875 -40.9854 -40.9854 -40.9846
    -6.5670  -5.9159  -5.9159  -5.7083   1.9923   1.9923   2.0046   3.4877
     3.5015   3.5340   3.6704   3.6704   3.6798   3.6798   3.7234   3.7669
     6.2713   6.6711   6.6734   6.8404   6.8404   6.8518   6.8518   6.9168
     6.9168   6.9882   7.0707   7.3759   7.4075   8.2604   8.2604   8.2798
     8.2798   9.2295

     occupation numbers 
     1.0000   1.0000   1.0000   1.0000   1.0000   1.0000   1.0000   1.0000
     1.0000   1.0000   1.0000   1.0000   1.0000   1.0000   1.0000   1.0000
     1.0000   1.0000   1.0000   1.0000   1.0000   1.0000   1.0000   1.0000
     1.0000   1.0000   1.0000   1.0000   1.0000   1.0000   1.0000   1.0000
     1.0000   1.0000   1.0000   0.9996   0.9996   0.9994   0.9994   0.9948
     0.9948   0.9659   0.8329   0.0137   0.0056   0.0000   0.0000   0.0000
     0.0000   0.0000

          k = 0.0000 0.0000 0.4899 (  3184 PWs)   bands (ev):

   -72.2480 -72.2478 -72.2478 -72.2476 -40.9917 -40.9917 -40.9917 -40.9914
   -40.9908 -40.9908 -40.9890 -40.9880 -40.9876 -40.9858 -40.9858 -40.9845
    -6.3590  -5.8492  -5.8492  -5.7851   2.2548   2.2548   2.2666   2.9467
     3.3519   3.3519   3.3830   3.5563   3.5680   3.6867   3.6867   3.7015
     6.3694   6.5161   6.5161   6.6825   6.6859   6.8626   6.8626   6.9476
     6.9496   6.9603   6.9603   7.7576   7.8039   7.9500   7.9500   7.9559
     7.9559   8.1588

     occupation numbers 
     1.0000   1.0000   1.0000   1.0000   1.0000   1.0000   1.0000   1.0000
     1.0000   1.0000   1.0000   1.0000   1.0000   1.0000   1.0000   1.0000
     1.0000   1.0000   1.0000   1.0000   1.0000   1.0000   1.0000   1.0000
     1.0000   1.0000   1.0000   1.0000   1.0000   1.0000   1.0000   1.0000
     1.0000   1.0000   1.0000   1.0000   1.0000   0.9991   0.9991   0.9876
     0.9870   0.9827   0.9827   0.0000   0.0000   0.0000   0.0000   0.0000
     0.0000   0.0000

          k = 0.0000 0.0000 0.9798 (  3151 PWs)   bands (ev):

   -72.2478 -72.2477 -72.2475 -72.2475 -40.9936 -40.9927 -40.9927 -40.9916
   -40.9901 -40.9901 -40.9885 -40.9884 -40.9874 -40.9859 -40.9859 -40.9849
    -5.9884  -5.8990  -5.7298  -5.7298   2.0845   2.0971   2.0971   2.1389
     3.5568   3.6269   3.6271   3.6272   3.6319   3.6625   3.7307   3.7307
     6.2770   6.2770   6.7549   6.7833   6.7913   6.8546   6.9579   6.9579
     6.9840   7.0655   7.0655   7.1474   7.5221   7.5221   7.5529   7.5529
     8.1943   8.2046

     occupation numbers 
     1.0000   1.0000   1.0000   1.0000   1.0000   1.0000   1.0000   1.0000
     1.0000   1.0000   1.0000   1.0000   1.0000   1.0000   1.0000   1.0000
     1.0000   1.0000   1.0000   1.0000   1.0000   1.0000   1.0000   1.0000
     1.0000   1.0000   1.0000   1.0000   1.0000   1.0000   1.0000   1.0000
     1.0000   1.0000   1.0000   1.0000   0.9999   0.9993   0.9838   0.9838
     0.9691   0.8462   0.8462   0.5671   0.0001   0.0001   0.0000   0.0000
     0.0000   0.0000

          k = 0.0000 0.3849-0.1361 (  3185 PWs)   bands (ev):

   -72.2480 -72.2479 -72.2477 -72.2476 -40.9920 -40.9917 -40.9912 -40.9902
   -40.9902 -40.9899 -40.9896 -40.9886 -40.9870 -40.9860 -40.9853 -40.9846
    -6.4169  -6.0936  -5.8678  -5.7642   2.2028   2.2163   2.3323   3.0690
     3.4056   3.4255   3.5572   3.5864   3.6322   3.6487   3.6996   3.7452
     6.3063   6.5920   6.6841   6.6853   6.7077   6.7140   6.8767   6.9330
     6.9800   6.9837   7.3778   7.6447   7.7150   8.0286   8.0607   8.3805
     8.5526   8.5616

     occupation numbers 
     1.0000   1.0000   1.0000   1.0000   1.0000   1.0000   1.0000   1.0000
     1.0000   1.0000   1.0000   1.0000   1.0000   1.0000   1.0000   1.0000
     1.0000   1.0000   1.0000   1.0000   1.0000   1.0000   1.0000   1.0000
     1.0000   1.0000   1.0000   1.0000   1.0000   1.0000   1.0000   1.0000
     1.0000   1.0000   1.0000   1.0000   1.0000   1.0000   0.9986   0.9917
     0.9719   0.9693   0.0130   0.0000   0.0000   0.0000   0.0000   0.0000
     0.0000   0.0000

          k = 0.0000 0.3849 0.3538 (  3165 PWs)   bands (ev):

   -72.2480 -72.2477 -72.2477 -72.2475 -40.9922 -40.9922 -40.9913 -40.9910
   -40.9901 -40.9901 -40.9895 -40.9885 -40.9871 -40.9860 -40.9854 -40.9849
    -6.3270  -5.9254  -5.8871  -5.7074   2.3662   2.3699   2.4405   2.9321
     3.1289   3.2233   3.2972   3.5546   3.5633   3.6714   3.7083   3.7087
     6.2718   6.4974   6.6204   6.6471   6.6806   6.7147   6.7910   6.7983
     7.0725   7.1672   7.1785   7.4098   7.7173   7.7822   7.9169   8.3823
     8.4600   8.4739

     occupation numbers 
     1.0000   1.0000   1.0000   1.0000   1.0000   1.0000   1.0000   1.0000
     1.0000   1.0000   1.0000   1.0000   1.0000   1.0000   1.0000   1.0000
     1.0000   1.0000   1.0000   1.0000   1.0000   1.0000   1.0000   1.0000
     1.0000   1.0000   1.0000   1.0000   1.0000   1.0000   1.0000   1.0000
     1.0000   1.0000   1.0000   1.0000   1.0000   1.0000   0.9999   0.9999
     0.8283   0.4853   0.4385   0.0052   0.0000   0.0000   0.0000   0.0000
     0.0000   0.0000

          k = 0.0000 0.3849 0.8437 (  3166 PWs)   bands (ev):

   -72.2478 -72.2477 -72.2476 -72.2476 -40.9930 -40.9929 -40.9922 -40.9920
   -40.9901 -40.9899 -40.9892 -40.9889 -40.9872 -40.9862 -40.9858 -40.9852
    -5.9876  -5.8333  -5.8030  -5.7359   2.3115   2.3561   2.3588   2.4262
     3.0641   3.1601   3.3902   3.4817   3.6257   3.6943   3.6967   3.7259
     6.3079   6.3866   6.4914   6.5199   6.7624   6.8269   6.8652   6.9225
     6.9964   7.0148   7.1398   7.2824   7.6000   7.6019   7.7088   7.8277
     8.0355   8.0533

     occupation numbers 
     1.0000   1.0000   1.0000   1.0000   1.0000   1.0000   1.0000   1.0000
     1.0000   1.0000   1.0000   1.0000   1.0000   1.0000   1.0000   1.0000
     1.0000   1.0000   1.0000   1.0000   1.0000   1.0000   1.0000   1.0000
     1.0000   1.0000   1.0000   1.0000   1.0000   1.0000   1.0000   1.0000
     1.0000   1.0000   1.0000   1.0000   1.0000   0.9998   0.9990   0.9939
     0.9589   0.9391   0.5978   0.1084   0.0000   0.0000   0.0000   0.0000
     0.0000   0.0000

          k = 0.0000 0.3849-1.1159 (  3158 PWs)   bands (ev):

   -72.2477 -72.2477 -72.2477 -72.2475 -40.9935 -40.9927 -40.9926 -40.9915
   -40.9899 -40.9896 -40.9891 -40.9891 -40.9869 -40.9864 -40.9857 -40.9852
    -5.9157  -5.8662  -5.8596  -5.7159   2.2045   2.2315   2.2359   2.2596
     3.3155   3.3522   3.4203   3.6553   3.6805   3.6808   3.6887   3.7085
     6.2622   6.2853   6.6634   6.6958   6.7566   6.7608   6.8214   7.0401
     7.0505   7.0588   7.0876   7.3902   7.4295   7.6789   7.7625   7.7980
     7.8631   7.9406

     occupation numbers 
     1.0000   1.0000   1.0000   1.0000   1.0000   1.0000   1.0000   1.0000
     1.0000   1.0000   1.0000   1.0000   1.0000   1.0000   1.0000   1.0000
     1.0000   1.0000   1.0000   1.0000   1.0000   1.0000   1.0000   1.0000
     1.0000   1.0000   1.0000   1.0000   1.0000   1.0000   1.0000   1.0000
     1.0000   1.0000   1.0000   1.0000   1.0000   1.0000   0.9998   0.9004
     0.8801   0.8621   0.7854   0.0093   0.0029   0.0000   0.0000   0.0000
     0.0000   0.0000

          k = 0.0000 0.3849-0.6260 (  3178 PWs)   bands (ev):

   -72.2479 -72.2479 -72.2477 -72.2476 -40.9921 -40.9920 -40.9913 -40.9912
   -40.9904 -40.9899 -40.9893 -40.9889 -40.9871 -40.9862 -40.9854 -40.9849
    -6.1497  -6.0795  -5.8951  -5.7407   2.4277   2.4975   2.5771   2.6275
     2.9334   3.2534   3.4205   3.5773   3.6169   3.6450   3.6924   3.6981
     6.3393   6.3955   6.5057   6.5636   6.6873   6.8125   6.8227   6.8931
     7.0610   7.2059   7.4964   7.6420   7.6530   7.7281   7.9982   8.0459
     8.1209   8.3177

     occupation numbers 
     1.0000   1.0000   1.0000   1.0000   1.0000   1.0000   1.0000   1.0000
     1.0000   1.0000   1.0000   1.0000   1.0000   1.0000   1.0000   1.0000
     1.0000   1.0000   1.0000   1.0000   1.0000   1.0000   1.0000   1.0000
     1.0000   1.0000   1.0000   1.0000   1.0000   1.0000   1.0000   1.0000
     1.0000   1.0000   1.0000   1.0000   1.0000   0.9999   0.9998   0.9975
     0.8571   0.3303   0.0003   0.0000   0.0000   0.0000   0.0000   0.0000
     0.0000   0.0000

          k = 0.3333 0.1925-0.2722 (  3186 PWs)   bands (ev):

   -72.2480 -72.2478 -72.2477 -72.2477 -40.9917 -40.9913 -40.9913 -40.9906
   -40.9904 -40.9904 -40.9890 -40.9883 -40.9868 -40.9857 -40.9857 -40.9851
    -6.3684  -5.9403  -5.9262  -5.9262   2.2847   2.3146   2.3146   3.0151
     3.3449   3.3449   3.5342   3.5750   3.6468   3.6888   3.7153   3.7153
     6.2548   6.5211   6.6506   6.6506   6.7665   6.7889   6.7889   6.9576
     7.1410   7.1410   7.7500   7.7775   7.8061   7.8212   7.8212   8.4613
     8.4613   8.6445

     occupation numbers 
     1.0000   1.0000   1.0000   1.0000   1.0000   1.0000   1.0000   1.0000
     1.0000   1.0000   1.0000   1.0000   1.0000   1.0000   1.0000   1.0000
     1.0000   1.0000   1.0000   1.0000   1.0000   1.0000   1.0000   1.0000
     1.0000   1.0000   1.0000   1.0000   1.0000   1.0000   1.0000   1.0000
     1.0000   1.0000   1.0000   1.0000   1.0000   1.0000   1.0000   0.9839
     0.5929   0.5929   0.0000   0.0000   0.0000   0.0000   0.0000   0.0000
     0.0000   0.0000

          k = 0.3333 0.1925 0.2177 (  3178 PWs)   bands (ev):

   -72.2480 -72.2477 -72.2477 -72.2476 -40.9927 -40.9921 -40.9921 -40.9905
   -40.9903 -40.9903 -40.9892 -40.9880 -40.9869 -40.9858 -40.9858 -40.9852
    -6.3937  -5.8470  -5.8470  -5.7469   2.2321   2.2321   2.2615   3.0274
     3.3376   3.3471   3.3471   3.5561   3.5674   3.7003   3.7003   3.7075
     6.3158   6.5619   6.5619   6.6469   6.7106   6.8404   6.8404   6.9249
     6.9303   6.9792   6.9792   7.6759   7.7051   7.9240   7.9240   8.0565
     8.0565   8.3050

     occupation numbers 
     1.0000   1.0000   1.0000   1.0000   1.0000   1.0000   1.0000   1.0000
     1.0000   1.0000   1.0000   1.0000   1.0000   1.0000   1.0000   1.0000
     1.0000   1.0000   1.0000   1.0000   1.0000   1.0000   1.0000   1.0000
     1.0000   1.0000   1.0000   1.0000   1.0000   1.0000   1.0000   1.0000
     1.0000   1.0000   1.0000   1.0000   1.0000   0.9996   0.9996   0.9935
     0.9924   0.9724   0.9724   0.0000   0.0000   0.0000   0.0000   0.0000
     0.0000   0.0000

          k = 0.3333 0.1925 0.7076 (  3164 PWs)   bands (ev):

   -72.2479 -72.2477 -72.2476 -72.2476 -40.9926 -40.9925 -40.9924 -40.9924
   -40.9905 -40.9905 -40.9887 -40.9882 -40.9870 -40.9860 -40.9860 -40.9856
    -6.0896  -5.8148  -5.7256  -5.7256   2.5397   2.5511   2.5735   2.5735
     2.9428   2.9506   2.9506   3.3797   3.6480   3.6798   3.6798   3.7083
     6.3048   6.3048   6.5121   6.5604   6.6698   6.6698   6.6732   6.8416
     7.0622   7.0622   7.1902   7.4553   7.4553   7.5471   7.5580   7.9663
     7.9663   7.9769

     occupation numbers 
     1.0000   1.0000   1.0000   1.0000   1.0000   1.0000   1.0000   1.0000
     1.0000   1.0000   1.0000   1.0000   1.0000   1.0000   1.0000   1.0000
     1.0000   1.0000   1.0000   1.0000   1.0000   1.0000   1.0000   1.0000
     1.0000   1.0000   1.0000   1.0000   1.0000   1.0000   1.0000   1.0000
     1.0000   1.0000   1.0000   1.0000   1.0000   1.0000   1.0000   0.9996
     0.8540   0.8540   0.3914   0.0012   0.0012   0.0000   0.0000   0.0000
     0.0000   0.0000

          k = 0.3333 0.1925-1.2520 (  3156 PWs)   bands (ev):

   -72.2478 -72.2477 -72.2476 -72.2476 -40.9937 -40.9927 -40.9927 -40.9915
   -40.9901 -40.9901 -40.9886 -40.9882 -40.9866 -40.9860 -40.9860 -40.9858
    -6.0402  -5.8539  -5.7281  -5.7281   2.2102   2.2282   2.2282   2.2838
     3.3342   3.3942   3.3942   3.5920   3.6472   3.6705   3.7267   3.7267
     6.2902   6.2902   6.6495   6.6778   6.8048   6.8179   6.8179   6.8294
     7.0085   7.0287   7.0287   7.2992   7.4920   7.4920   7.7533   7.7533
     7.9148   8.2007

     occupation numbers 
     1.0000   1.0000   1.0000   1.0000   1.0000   1.0000   1.0000   1.0000
     1.0000   1.0000   1.0000   1.0000   1.0000   1.0000   1.0000   1.0000
     1.0000   1.0000   1.0000   1.0000   1.0000   1.0000   1.0000   1.0000
     1.0000   1.0000   1.0000   1.0000   1.0000   1.0000   1.0000   1.0000
     1.0000   1.0000   1.0000   1.0000   0.9999   0.9998   0.9998   0.9997
     0.9466   0.9196   0.9196   0.0794   0.0003   0.0003   0.0000   0.0000
     0.0000   0.0000

          k = 0.3333 0.1925-0.7621 (  3171 PWs)   bands (ev):

   -72.2478 -72.2478 -72.2477 -72.2477 -40.9925 -40.9919 -40.9919 -40.9907
   -40.9902 -40.9902 -40.9886 -40.9884 -40.9867 -40.9858 -40.9858 -40.9855
    -6.1157  -6.0430  -5.8555  -5.8555   2.3557   2.3557   2.4361   2.5082
     3.3491   3.3491   3.5236   3.5765   3.6043   3.6062   3.6989   3.6989
     6.4169   6.4169   6.4856   6.5242   6.8339   6.8339   6.8556   6.9077
     7.1709   7.1709   7.4516   7.5908   7.5973   7.5973   8.1339   8.1339
     8.1840   8.3514

     occupation numbers 
     1.0000   1.0000   1.0000   1.0000   1.0000   1.0000   1.0000   1.0000
     1.0000   1.0000   1.0000   1.0000   1.0000   1.0000   1.0000   1.0000
     1.0000   1.0000   1.0000   1.0000   1.0000   1.0000   1.0000   1.0000
     1.0000   1.0000   1.0000   1.0000   1.0000   1.0000   1.0000   1.0000
     1.0000   1.0000   1.0000   1.0000   0.9997   0.9997   0.9993   0.9961
     0.4700   0.4700   0.0014   0.0000   0.0000   0.0000   0.0000   0.0000
     0.0000   0.0000

          k = 0.3333-0.5774 0.0000 (  3195 PWs)   bands (ev):

   -72.2479 -72.2479 -72.2479 -72.2477 -40.9917 -40.9912 -40.9912 -40.9906
   -40.9905 -40.9898 -40.9892 -40.9892 -40.9866 -40.9859 -40.9859 -40.9851
    -6.2081  -6.1015  -6.1015  -5.7588   2.5150   2.5150   2.6465   2.6954
     2.8006   3.4702   3.5354   3.5354   3.6347   3.6347   3.6552   3.7529
     6.3254   6.4529   6.4529   6.5729   6.7371   6.8117   6.8740   6.8740
     7.1044   7.5248   7.6310   7.6310   7.8996   7.9830   8.1312   8.2148
     8.2148   8.4751

     occupation numbers 
     1.0000   1.0000   1.0000   1.0000   1.0000   1.0000   1.0000   1.0000
     1.0000   1.0000   1.0000   1.0000   1.0000   1.0000   1.0000   1.0000
     1.0000   1.0000   1.0000   1.0000   1.0000   1.0000   1.0000   1.0000
     1.0000   1.0000   1.0000   1.0000   1.0000   1.0000   1.0000   1.0000
     1.0000   1.0000   1.0000   1.0000   1.0000   0.9999   0.9987   0.9987
     0.7310   0.0001   0.0000   0.0000   0.0000   0.0000   0.0000   0.0000
     0.0000   0.0000

          k = 0.3333-0.5774 0.4899 (  3179 PWs)   bands (ev):

   -72.2479 -72.2479 -72.2477 -72.2476 -40.9926 -40.9919 -40.9918 -40.9906
   -40.9901 -40.9897 -40.9894 -40.9890 -40.9867 -40.9861 -40.9858 -40.9852
    -6.2041  -6.0598  -5.8384  -5.7589   2.4213   2.4689   2.5273   2.6920
     2.9722   3.2029   3.4695   3.5257   3.6374   3.6441   3.6856   3.7098
     6.3785   6.4288   6.4812   6.5622   6.7065   6.7510   6.8018   6.8954
     7.0711   7.1732   7.5401   7.5521   7.5605   7.8897   8.0148   8.0991
     8.1574   8.1760

     occupation numbers 
     1.0000   1.0000   1.0000   1.0000   1.0000   1.0000   1.0000   1.0000
     1.0000   1.0000   1.0000   1.0000   1.0000   1.0000   1.0000   1.0000
     1.0000   1.0000   1.0000   1.0000   1.0000   1.0000   1.0000   1.0000
     1.0000   1.0000   1.0000   1.0000   1.0000   1.0000   1.0000   1.0000
     1.0000   1.0000   1.0000   1.0000   1.0000   1.0000   0.9999   0.9974
     0.8320   0.4603   0.0000   0.0000   0.0000   0.0000   0.0000   0.0000
     0.0000   0.0000

          k = 0.3333-0.5774 0.9798 (  3173 PWs)   bands (ev):

   -72.2478 -72.2477 -72.2477 -72.2476 -40.9931 -40.9929 -40.9921 -40.9921
   -40.9901 -40.9899 -40.9893 -40.9888 -40.9868 -40.9863 -40.9860 -40.9854
    -6.0152  -5.8056  -5.7814  -5.7594   2.4392   2.4519   2.4862   2.5869
     2.8741   3.0407   3.1198   3.4717   3.6472   3.6793   3.6876   3.7286
     6.3405   6.4248   6.4452   6.4840   6.6803   6.6982   6.7130   6.9344
     7.0718   7.0988   7.1441   7.4620   7.5203   7.5324   7.5421   7.9456
     7.9939   8.0662

     occupation numbers 
     1.0000   1.0000   1.0000   1.0000   1.0000   1.0000   1.0000   1.0000
     1.0000   1.0000   1.0000   1.0000   1.0000   1.0000   1.0000   1.0000
     1.0000   1.0000   1.0000   1.0000   1.0000   1.0000   1.0000   1.0000
     1.0000   1.0000   1.0000   1.0000   1.0000   1.0000   1.0000   1.0000
     1.0000   1.0000   1.0000   1.0000   1.0000   1.0000   1.0000   0.9914
     0.8302   0.7497   0.5807   0.0010   0.0001   0.0001   0.0000   0.0000
     0.0000   0.0000

          k =-0.3333 0.1925 0.1361 (  3185 PWs)   bands (ev):

   -72.2480 -72.2479 -72.2477 -72.2476 -40.9920 -40.9917 -40.9912 -40.9902
   -40.9902 -40.9899 -40.9896 -40.9886 -40.9870 -40.9860 -40.9853 -40.9846
    -6.4169  -6.0936  -5.8678  -5.7642   2.2028   2.2163   2.3323   3.0690
     3.4056   3.4255   3.5572   3.5864   3.6322   3.6487   3.6996   3.7452
     6.3063   6.5920   6.6841   6.6853   6.7077   6.7140   6.8767   6.9330
     6.9800   6.9837   7.3778   7.6447   7.7150   8.0286   8.0607   8.3805
     8.5526   8.5616

     occupation numbers 
     1.0000   1.0000   1.0000   1.0000   1.0000   1.0000   1.0000   1.0000
     1.0000   1.0000   1.0000   1.0000   1.0000   1.0000   1.0000   1.0000
     1.0000   1.0000   1.0000   1.0000   1.0000   1.0000   1.0000   1.0000
     1.0000   1.0000   1.0000   1.0000   1.0000   1.0000   1.0000   1.0000
     1.0000   1.0000   1.0000   1.0000   1.0000   1.0000   0.9986   0.9917
     0.9719   0.9693   0.0130   0.0000   0.0000   0.0000   0.0000   0.0000
     0.0000   0.0000

          k =-0.3333 0.1925-0.3538 (  3165 PWs)   bands (ev):

   -72.2480 -72.2477 -72.2477 -72.2475 -40.9922 -40.9922 -40.9913 -40.9910
   -40.9901 -40.9901 -40.9895 -40.9885 -40.9871 -40.9860 -40.9854 -40.9849
    -6.3270  -5.9254  -5.8871  -5.7074   2.3662   2.3699   2.4405   2.9321
     3.1289   3.2233   3.2972   3.5546   3.5633   3.6714   3.7083   3.7087
     6.2718   6.4974   6.6204   6.6471   6.6806   6.7147   6.7910   6.7983
     7.0725   7.1672   7.1785   7.4098   7.7173   7.7822   7.9169   8.3823
     8.4599   8.4739

     occupation numbers 
     1.0000   1.0000   1.0000   1.0000   1.0000   1.0000   1.0000   1.0000
     1.0000   1.0000   1.0000   1.0000   1.0000   1.0000   1.0000   1.0000
     1.0000   1.0000   1.0000   1.0000   1.0000   1.0000   1.0000   1.0000
     1.0000   1.0000   1.0000   1.0000   1.0000   1.0000   1.0000   1.0000
     1.0000   1.0000   1.0000   1.0000   1.0000   1.0000   0.9999   0.9999
     0.8283   0.4853   0.4385   0.0052   0.0000   0.0000   0.0000   0.0000
     0.0000   0.0000

          k =-0.3333 0.1925-0.8437 (  3166 PWs)   bands (ev):

   -72.2478 -72.2477 -72.2476 -72.2476 -40.9930 -40.9929 -40.9922 -40.9920
   -40.9901 -40.9899 -40.9892 -40.9889 -40.9872 -40.9862 -40.9858 -40.9852
    -5.9876  -5.8333  -5.8030  -5.7359   2.3115   2.3561   2.3588   2.4262
     3.0641   3.1601   3.3902   3.4817   3.6257   3.6943   3.6967   3.7259
     6.3079   6.3866   6.4914   6.5199   6.7624   6.8269   6.8652   6.9225
     6.9964   7.0148   7.1398   7.2824   7.6000   7.6019   7.7088   7.8277
     8.0355   8.0533

     occupation numbers 
     1.0000   1.0000   1.0000   1.0000   1.0000   1.0000   1.0000   1.0000
     1.0000   1.0000   1.0000   1.0000   1.0000   1.0000   1.0000   1.0000
     1.0000   1.0000   1.0000   1.0000   1.0000   1.0000   1.0000   1.0000
     1.0000   1.0000   1.0000   1.0000   1.0000   1.0000   1.0000   1.0000
     1.0000   1.0000   1.0000   1.0000   1.0000   0.9998   0.9990   0.9939
     0.9589   0.9391   0.5978   0.1084   0.0000   0.0000   0.0000   0.0000
     0.0000   0.0000

          k =-0.3333 0.1925 1.1159 (  3158 PWs)   bands (ev):

   -72.2477 -72.2477 -72.2477 -72.2475 -40.9935 -40.9927 -40.9926 -40.9915
   -40.9899 -40.9896 -40.9891 -40.9891 -40.9869 -40.9864 -40.9857 -40.9852
    -5.9157  -5.8662  -5.8596  -5.7159   2.2045   2.2315   2.2359   2.2596
     3.3155   3.3522   3.4203   3.6553   3.6805   3.6808   3.6887   3.7085
     6.2622   6.2853   6.6634   6.6958   6.7566   6.7608   6.8214   7.0401
     7.0505   7.0588   7.0876   7.3902   7.4295   7.6789   7.7625   7.7980
     7.8631   7.9406

     occupation numbers 
     1.0000   1.0000   1.0000   1.0000   1.0000   1.0000   1.0000   1.0000
     1.0000   1.0000   1.0000   1.0000   1.0000   1.0000   1.0000   1.0000
     1.0000   1.0000   1.0000   1.0000   1.0000   1.0000   1.0000   1.0000
     1.0000   1.0000   1.0000   1.0000   1.0000   1.0000   1.0000   1.0000
     1.0000   1.0000   1.0000   1.0000   1.0000   1.0000   0.9998   0.9004
     0.8801   0.8621   0.7854   0.0093   0.0029   0.0000   0.0000   0.0000
     0.0000   0.0000

          k =-0.3333 0.1925 0.6260 (  3178 PWs)   bands (ev):

   -72.2479 -72.2479 -72.2477 -72.2476 -40.9921 -40.9920 -40.9913 -40.9912
   -40.9904 -40.9899 -40.9893 -40.9889 -40.9871 -40.9862 -40.9854 -40.9849
    -6.1497  -6.0795  -5.8951  -5.7407   2.4277   2.4975   2.5771   2.6275
     2.9334   3.2534   3.4205   3.5773   3.6169   3.6450   3.6924   3.6981
     6.3393   6.3955   6.5057   6.5636   6.6873   6.8125   6.8227   6.8931
     7.0610   7.2059   7.4964   7.6420   7.6530   7.7281   7.9982   8.0459
     8.1209   8.3177

     occupation numbers 
     1.0000   1.0000   1.0000   1.0000   1.0000   1.0000   1.0000   1.0000
     1.0000   1.0000   1.0000   1.0000   1.0000   1.0000   1.0000   1.0000
     1.0000   1.0000   1.0000   1.0000   1.0000   1.0000   1.0000   1.0000
     1.0000   1.0000   1.0000   1.0000   1.0000   1.0000   1.0000   1.0000
     1.0000   1.0000   1.0000   1.0000   1.0000   0.9999   0.9998   0.9975
     0.8571   0.3303   0.0003   0.0000   0.0000   0.0000   0.0000   0.0000
     0.0000   0.0000

          k = 0.3333-0.5774-0.4899 (  3179 PWs)   bands (ev):

   -72.2479 -72.2479 -72.2477 -72.2476 -40.9926 -40.9919 -40.9918 -40.9906
   -40.9901 -40.9897 -40.9894 -40.9890 -40.9867 -40.9861 -40.9858 -40.9852
    -6.2041  -6.0598  -5.8384  -5.7589   2.4213   2.4689   2.5273   2.6920
     2.9722   3.2029   3.4695   3.5257   3.6374   3.6441   3.6856   3.7098
     6.3785   6.4288   6.4812   6.5622   6.7065   6.7510   6.8018   6.8954
     7.0711   7.1732   7.5401   7.5521   7.5605   7.8897   8.0148   8.0991
     8.1574   8.1760

     occupation numbers 
     1.0000   1.0000   1.0000   1.0000   1.0000   1.0000   1.0000   1.0000
     1.0000   1.0000   1.0000   1.0000   1.0000   1.0000   1.0000   1.0000
     1.0000   1.0000   1.0000   1.0000   1.0000   1.0000   1.0000   1.0000
     1.0000   1.0000   1.0000   1.0000   1.0000   1.0000   1.0000   1.0000
     1.0000   1.0000   1.0000   1.0000   1.0000   1.0000   0.9999   0.9974
     0.8320   0.4603   0.0000   0.0000   0.0000   0.0000   0.0000   0.0000
     0.0000   0.0000

          k = 0.3333-0.5774-0.9798 (  3173 PWs)   bands (ev):

   -72.2478 -72.2477 -72.2477 -72.2476 -40.9931 -40.9929 -40.9921 -40.9921
   -40.9901 -40.9899 -40.9893 -40.9888 -40.9868 -40.9863 -40.9860 -40.9854
    -6.0152  -5.8056  -5.7814  -5.7594   2.4392   2.4519   2.4862   2.5869
     2.8741   3.0407   3.1198   3.4717   3.6472   3.6793   3.6876   3.7286
     6.3405   6.4248   6.4452   6.4840   6.6803   6.6982   6.7130   6.9344
     7.0718   7.0988   7.1441   7.4620   7.5203   7.5324   7.5421   7.9456
     7.9939   8.0662

     occupation numbers 
     1.0000   1.0000   1.0000   1.0000   1.0000   1.0000   1.0000   1.0000
     1.0000   1.0000   1.0000   1.0000   1.0000   1.0000   1.0000   1.0000
     1.0000   1.0000   1.0000   1.0000   1.0000   1.0000   1.0000   1.0000
     1.0000   1.0000   1.0000   1.0000   1.0000   1.0000   1.0000   1.0000
     1.0000   1.0000   1.0000   1.0000   1.0000   1.0000   1.0000   0.9914
     0.8302   0.7497   0.5807   0.0010   0.0001   0.0001   0.0000   0.0000
     0.0000   0.0000

     the Fermi energy is     7.1636 ev

!    total energy              =   -1410.64623809 Ry
     total all-electron energy =    -12462.079852 Ry
     estimated scf accuracy    <          5.8E-11 Ry
     smearing contrib. (-TS)   =      -0.00967460 Ry
     internal energy E=F+TS    =   -1410.63656349 Ry

     The total energy is F=E-TS. E is the sum of the following terms:
     one-electron contribution =    -610.22784903 Ry
     hartree contribution      =     338.06603433 Ry
     xc contribution           =    -130.68889319 Ry
     ewald contribution        =    -513.01672939 Ry
     one-center paw contrib.   =    -494.76912620 Ry
      -> PAW hartree energy AE =     354.24079821 Ry
      -> PAW hartree energy PS =    -356.06386345 Ry
      -> PAW xc energy AE      =    -208.46279375 Ry
      -> PAW xc energy PS      =      55.13263193 Ry
      -> total E_H with PAW    =     336.24296909 Ry
      -> total E_XC with PAW   =    -284.01905501 Ry

     convergence has been achieved in  25 iterations

     Forces acting on atoms (cartesian axes, Ry/au):

     atom    1 type  1   force =     0.00002128    0.00001251    0.00001045
     atom    2 type  2   force =     0.00002168    0.00001152    0.00001086
     atom    3 type  3   force =     0.00002101    0.00001302    0.00001071
     atom    4 type  4   force =     0.00002139    0.00001185    0.00001071
     atom    5 type  5   force =    -0.00002131   -0.00001193   -0.00001077
     atom    6 type  5   force =    -0.00002113   -0.00001266   -0.00001070
     atom    7 type  5   force =    -0.00002139   -0.00001165   -0.00001085
     atom    8 type  5   force =    -0.00002154   -0.00001265   -0.00001040
     The non-local contrib.  to forces
     atom    1 type  1   force =     0.00009763    0.00005536    0.00029997
     atom    2 type  2   force =     0.00009736    0.00005611    0.00029986
     atom    3 type  3   force =     0.00009638    0.00005568    0.00030052
     atom    4 type  4   force =     0.00009693    0.00005691    0.00029985
     atom    5 type  5   force =    -0.00150783   -0.00087010    0.00361821
     atom    6 type  5   force =    -0.00150795   -0.00087127    0.00361860
     atom    7 type  5   force =    -0.00150815   -0.00086994    0.00361839
     atom    8 type  5   force =    -0.00150807   -0.00087115    0.00361877
     The ionic contribution  to forces
     atom    1 type  1   force =     0.02812525    0.01631453   -0.07014205
     atom    2 type  2   force =     0.02814165    0.01623894   -0.07012633
     atom    3 type  3   force =     0.02820122    0.01629214   -0.07017912
     atom    4 type  4   force =     0.02818474    0.01619303   -0.07013322
     atom    5 type  5   force =    -0.02814804   -0.01628352    0.07014258
     atom    6 type  5   force =    -0.02815429   -0.01625045    0.07013500
     atom    7 type  5   force =    -0.02817833   -0.01627132    0.07016032
     atom    8 type  5   force =    -0.02817221   -0.01623335    0.07014282
     The local contribution  to forces
     atom    1 type  1   force =    -0.02822327   -0.01637056    0.06986698
     atom    2 type  2   force =    -0.02823969   -0.01629472    0.06985066
     atom    3 type  3   force =    -0.02829811   -0.01634896    0.06990324
     atom    4 type  4   force =    -0.02828200   -0.01624952    0.06985788
     atom    5 type  5   force =     0.02956308    0.01710171   -0.07360349
     atom    6 type  5   force =     0.02957237    0.01706384   -0.07359585
     atom    7 type  5   force =     0.02959275    0.01709319   -0.07362195
     atom    8 type  5   force =     0.02958347    0.01704708   -0.07359992
     The core correction contribution to forces
     atom    1 type  1   force =     0.00002447    0.00001446   -0.00002787
     atom    2 type  2   force =     0.00002465    0.00001421   -0.00002788
     atom    3 type  3   force =     0.00002492    0.00001444   -0.00002807
     atom    4 type  4   force =     0.00002474    0.00001394   -0.00002779
     atom    5 type  5   force =     0.00007477    0.00004317   -0.00018296
     atom    6 type  5   force =     0.00007479    0.00004318   -0.00018297
     atom    7 type  5   force =     0.00007479    0.00004317   -0.00018297
     atom    8 type  5   force =     0.00007477    0.00004317   -0.00018296
     The Hubbard contrib.    to forces
     atom    1 type  1   force =     0.00000000    0.00000000    0.00000000
     atom    2 type  2   force =     0.00000000    0.00000000    0.00000000
     atom    3 type  3   force =     0.00000000    0.00000000    0.00000000
     atom    4 type  4   force =     0.00000000    0.00000000    0.00000000
     atom    5 type  5   force =     0.00000000    0.00000000    0.00000000
     atom    6 type  5   force =     0.00000000    0.00000000    0.00000000
     atom    7 type  5   force =     0.00000000    0.00000000    0.00000000
     atom    8 type  5   force =     0.00000000    0.00000000    0.00000000
     The SCF correction term to forces
     atom    1 type  1   force =     0.00000004    0.00000029   -0.00000053
     atom    2 type  2   force =     0.00000057   -0.00000145    0.00000060
     atom    3 type  3   force =    -0.00000054    0.00000130    0.00000019
     atom    4 type  4   force =    -0.00000016   -0.00000094    0.00000004
     atom    5 type  5   force =    -0.00000043   -0.00000162    0.00000092
     atom    6 type  5   force =    -0.00000320    0.00000362    0.00000056
     atom    7 type  5   force =     0.00000041   -0.00000516    0.00000143
     atom    8 type  5   force =     0.00000335    0.00000317   -0.00000306

     Total force =     0.000076     Total SCF correction =     0.000010
     SCF correction compared to forces is large: reduce conv_thr to get better values


     Computing stress (Cartesian axis) and pressure

          total   stress  (Ry/bohr**3)                   (kbar)     P=     -579.20
  -0.00393565   0.00000372   0.00000362         -578.95        0.55        0.53
   0.00000372  -0.00393995   0.00000209            0.55     -579.59        0.31
   0.00000362   0.00000209  -0.00393630            0.53        0.31     -579.05

     kinetic stress (kbar)  15403.37      1.42     -1.97
                                1.42  15401.73     -1.14
                               -1.97     -1.14  15387.27

     local   stress (kbar)  -2655.83    109.06     78.52
                              109.06  -2781.76     45.34
                               78.52     45.34  -2103.92

     nonloc. stress (kbar)   -968.38      0.51      1.96
                                0.51   -968.97      1.13
                                1.96      1.13   -956.52

     hartree stress (kbar)  14551.48    -36.53    -27.11
                              -36.53  14593.67    -15.65
                              -27.11    -15.65  14363.11

     exc-cor stress (kbar)  -2309.82     -0.17     -0.14
                               -0.17  -2309.62     -0.08
                               -0.14     -0.08  -2310.82

     corecor stress (kbar)  -2682.94      0.03      0.04
                                0.03  -2682.97      0.02
                                0.04      0.02  -2682.69

     ewald   stress (kbar) -21916.84    -73.77    -50.77
                              -73.77 -21831.66    -29.31
                              -50.77    -29.31 -22275.48

     hubbard stress (kbar)      0.00      0.00      0.00
                                0.00      0.00      0.00
                                0.00      0.00      0.00

     DFT-D   stress (kbar)      0.00      0.00      0.00
                                0.00      0.00      0.00
                                0.00      0.00      0.00

     XDM     stress (kbar)      0.00      0.00      0.00
                                0.00      0.00      0.00
                                0.00      0.00      0.00

     dft-nl  stress (kbar)      0.00      0.00      0.00
                                0.00      0.00      0.00
                                0.00      0.00      0.00

     TS-vdW  stress (kbar)      0.00      0.00      0.00
                                0.00      0.00      0.00
                                0.00      0.00      0.00

     MDB     stress (kbar)      0.00      0.00      0.00
                                0.00      0.00      0.00
                                0.00      0.00      0.00

     3D-RISM stress (kbar)      0.00      0.00      0.00
                                0.00      0.00      0.00
                                0.00      0.00      0.00


     BFGS Geometry Optimization
     Energy error            =      0.0E+00 Ry
     Gradient error          =      2.2E-05 Ry/Bohr
     Cell gradient error     =      5.8E+02 kbar

     number of scf cycles    =   1
     number of bfgs steps    =   0

     enthalpy           new  =   -1410.6462380888 Ry

     new trust radius        =       0.5000000000 bohr
WARNING! With ibrav=0, cell_dofree='ibrav' has no effect. 
     new conv_thr            =            1.0E-10 Ry

     new unit-cell volume =    907.89837 a.u.^3 (   134.53666 Ang^3 )
     density =      4.29539 g/cm^3

CELL_PARAMETERS (angstrom)
   7.246745722   0.000546266   0.000531439
   3.623845524   6.275593023   0.000531450
   1.811982027   1.046148401   2.958610221

ATOMIC_POSITIONS (crystal)
Mn1              0.3743881785        0.3743877507        0.7522593023
Mn2              0.3743880108        0.8743880123        0.7522592342
Mn3              0.8743877871        0.3743878056        0.7522595724
Mn4              0.8743877808        0.8743882134        0.7522591562
S                0.0006119962        0.0006120047        0.9977407763
S                0.0006121054        0.5006120964        0.9977405472
S                0.5006120975        0.0006120850        0.9977405893
S                0.5006119897        0.5006120309        0.9977407631



     Writing config-only to output data dir ./temp/mns.save/ :
     XML data file
     NEW-OLD atomic charge density approx. for the potential

     Check: negative core charge=   -0.000084

     total cpu time spent up to now is      145.8 secs

     Self-consistent Calculation

     iteration #  1     ecut=    30.00 Ry     beta= 0.70
     Davidson diagonalization with overlap

---- Real-time Memory Report at c_bands before calling an iterative solver
            88 MiB given to the printing process from OS
             0 MiB allocation reported by mallinfo(arena+hblkhd)
          1316 MiB available memory on the node where the printing process lives
------------------
     ethr =  1.00E-06,  avg # of iterations = 10.7

     total cpu time spent up to now is      162.2 secs

     total energy              =   -1409.75045029 Ry
     estimated scf accuracy    <       1.49719358 Ry

     iteration #  2     ecut=    30.00 Ry     beta= 0.70
     Davidson diagonalization with overlap

---- Real-time Memory Report at c_bands before calling an iterative solver
            88 MiB given to the printing process from OS
             0 MiB allocation reported by mallinfo(arena+hblkhd)
          1316 MiB available memory on the node where the printing process lives
------------------
     ethr =  1.78E-03,  avg # of iterations =  6.7

     total cpu time spent up to now is      171.3 secs

     total energy              =   -1409.33154505 Ry
     estimated scf accuracy    <      19.09365460 Ry

     iteration #  3     ecut=    30.00 Ry     beta= 0.70
     Davidson diagonalization with overlap

---- Real-time Memory Report at c_bands before calling an iterative solver
            88 MiB given to the printing process from OS
             0 MiB allocation reported by mallinfo(arena+hblkhd)
          1314 MiB available memory on the node where the printing process lives
------------------
     ethr =  1.78E-03,  avg # of iterations =  5.4

     total cpu time spent up to now is      179.3 secs

     total energy              =   -1411.25095107 Ry
     estimated scf accuracy    <       0.36619967 Ry

     iteration #  4     ecut=    30.00 Ry     beta= 0.70
     Davidson diagonalization with overlap

---- Real-time Memory Report at c_bands before calling an iterative solver
            88 MiB given to the printing process from OS
             0 MiB allocation reported by mallinfo(arena+hblkhd)
          1313 MiB available memory on the node where the printing process lives
------------------
     ethr =  4.36E-04,  avg # of iterations =  3.0

     total cpu time spent up to now is      184.2 secs

     total energy              =   -1411.25585748 Ry
     estimated scf accuracy    <       0.57322693 Ry

     iteration #  5     ecut=    30.00 Ry     beta= 0.70
     Davidson diagonalization with overlap

---- Real-time Memory Report at c_bands before calling an iterative solver
            88 MiB given to the printing process from OS
             0 MiB allocation reported by mallinfo(arena+hblkhd)
          1311 MiB available memory on the node where the printing process lives
------------------
     ethr =  4.36E-04,  avg # of iterations =  1.1

     total cpu time spent up to now is      188.4 secs

     total energy              =   -1411.27919578 Ry
     estimated scf accuracy    <       0.12897460 Ry

     iteration #  6     ecut=    30.00 Ry     beta= 0.70
     Davidson diagonalization with overlap

---- Real-time Memory Report at c_bands before calling an iterative solver
            88 MiB given to the printing process from OS
             0 MiB allocation reported by mallinfo(arena+hblkhd)
          1314 MiB available memory on the node where the printing process lives
------------------
     ethr =  1.54E-04,  avg # of iterations =  1.5

     total cpu time spent up to now is      192.9 secs

     total energy              =   -1411.29353751 Ry
     estimated scf accuracy    <       0.40392576 Ry

     iteration #  7     ecut=    30.00 Ry     beta= 0.70
     Davidson diagonalization with overlap

---- Real-time Memory Report at c_bands before calling an iterative solver
            88 MiB given to the printing process from OS
             0 MiB allocation reported by mallinfo(arena+hblkhd)
          1306 MiB available memory on the node where the printing process lives
------------------
     ethr =  1.54E-04,  avg # of iterations =  2.0

     total cpu time spent up to now is      197.6 secs

     total energy              =   -1411.30700485 Ry
     estimated scf accuracy    <       0.01289650 Ry

     iteration #  8     ecut=    30.00 Ry     beta= 0.70
     Davidson diagonalization with overlap

---- Real-time Memory Report at c_bands before calling an iterative solver
            88 MiB given to the printing process from OS
             0 MiB allocation reported by mallinfo(arena+hblkhd)
          1313 MiB available memory on the node where the printing process lives
------------------
     ethr =  1.54E-05,  avg # of iterations =  5.2

     total cpu time spent up to now is      203.2 secs

     total energy              =   -1411.30952106 Ry
     estimated scf accuracy    <       0.03792283 Ry

     iteration #  9     ecut=    30.00 Ry     beta= 0.70
     Davidson diagonalization with overlap

---- Real-time Memory Report at c_bands before calling an iterative solver
            88 MiB given to the printing process from OS
             0 MiB allocation reported by mallinfo(arena+hblkhd)
          1314 MiB available memory on the node where the printing process lives
------------------
     ethr =  1.54E-05,  avg # of iterations =  1.3

     total cpu time spent up to now is      207.6 secs

     total energy              =   -1411.31131145 Ry
     estimated scf accuracy    <       0.00173684 Ry

     iteration # 10     ecut=    30.00 Ry     beta= 0.70
     Davidson diagonalization with overlap

---- Real-time Memory Report at c_bands before calling an iterative solver
            88 MiB given to the printing process from OS
             0 MiB allocation reported by mallinfo(arena+hblkhd)
          1313 MiB available memory on the node where the printing process lives
------------------
     ethr =  2.07E-06,  avg # of iterations =  4.6

     total cpu time spent up to now is      213.0 secs

     total energy              =   -1411.31196270 Ry
     estimated scf accuracy    <       0.00074948 Ry

     iteration # 11     ecut=    30.00 Ry     beta= 0.70
     Davidson diagonalization with overlap

---- Real-time Memory Report at c_bands before calling an iterative solver
            88 MiB given to the printing process from OS
             0 MiB allocation reported by mallinfo(arena+hblkhd)
          1316 MiB available memory on the node where the printing process lives
------------------
     ethr =  8.92E-07,  avg # of iterations =  4.0

     total cpu time spent up to now is      218.4 secs

     total energy              =   -1411.31202800 Ry
     estimated scf accuracy    <       0.00023305 Ry

     iteration # 12     ecut=    30.00 Ry     beta= 0.70
     Davidson diagonalization with overlap

---- Real-time Memory Report at c_bands before calling an iterative solver
            88 MiB given to the printing process from OS
             0 MiB allocation reported by mallinfo(arena+hblkhd)
          1314 MiB available memory on the node where the printing process lives
------------------
     ethr =  2.77E-07,  avg # of iterations =  3.7

     total cpu time spent up to now is      223.7 secs

     total energy              =   -1411.31205762 Ry
     estimated scf accuracy    <       0.00002621 Ry

     iteration # 13     ecut=    30.00 Ry     beta= 0.70
     Davidson diagonalization with overlap

---- Real-time Memory Report at c_bands before calling an iterative solver
            88 MiB given to the printing process from OS
             0 MiB allocation reported by mallinfo(arena+hblkhd)
          1310 MiB available memory on the node where the printing process lives
------------------
     ethr =  3.12E-08,  avg # of iterations =  5.1

     total cpu time spent up to now is      230.2 secs

     total energy              =   -1411.31206479 Ry
     estimated scf accuracy    <       0.00000431 Ry

     iteration # 14     ecut=    30.00 Ry     beta= 0.70
     Davidson diagonalization with overlap

---- Real-time Memory Report at c_bands before calling an iterative solver
            88 MiB given to the printing process from OS
             0 MiB allocation reported by mallinfo(arena+hblkhd)
          1309 MiB available memory on the node where the printing process lives
------------------
     ethr =  5.13E-09,  avg # of iterations =  2.4

     total cpu time spent up to now is      235.2 secs

     total energy              =   -1411.31206520 Ry
     estimated scf accuracy    <       0.00000054 Ry

     iteration # 15     ecut=    30.00 Ry     beta= 0.70
     Davidson diagonalization with overlap

---- Real-time Memory Report at c_bands before calling an iterative solver
            88 MiB given to the printing process from OS
             0 MiB allocation reported by mallinfo(arena+hblkhd)
          1310 MiB available memory on the node where the printing process lives
------------------
     ethr =  6.46E-10,  avg # of iterations =  4.1

     total cpu time spent up to now is      240.9 secs

     total energy              =   -1411.31206524 Ry
     estimated scf accuracy    <       0.00000036 Ry

     iteration # 16     ecut=    30.00 Ry     beta= 0.70
     Davidson diagonalization with overlap

---- Real-time Memory Report at c_bands before calling an iterative solver
            88 MiB given to the printing process from OS
             0 MiB allocation reported by mallinfo(arena+hblkhd)
          1310 MiB available memory on the node where the printing process lives
------------------
     ethr =  4.29E-10,  avg # of iterations =  2.6

     total cpu time spent up to now is      245.8 secs

     total energy              =   -1411.31206524 Ry
     estimated scf accuracy    <       0.00000142 Ry

     iteration # 17     ecut=    30.00 Ry     beta= 0.70
     Davidson diagonalization with overlap

---- Real-time Memory Report at c_bands before calling an iterative solver
            88 MiB given to the printing process from OS
             0 MiB allocation reported by mallinfo(arena+hblkhd)
          1312 MiB available memory on the node where the printing process lives
------------------
     ethr =  4.29E-10,  avg # of iterations =  1.9

     total cpu time spent up to now is      250.5 secs

     total energy              =   -1411.31206524 Ry
     estimated scf accuracy    <       0.00000163 Ry

     iteration # 18     ecut=    30.00 Ry     beta= 0.70
     Davidson diagonalization with overlap

---- Real-time Memory Report at c_bands before calling an iterative solver
            88 MiB given to the printing process from OS
             0 MiB allocation reported by mallinfo(arena+hblkhd)
          1309 MiB available memory on the node where the printing process lives
------------------
     ethr =  4.29E-10,  avg # of iterations =  1.0

     total cpu time spent up to now is      254.6 secs

     total energy              =   -1411.31206529 Ry
     estimated scf accuracy    <       0.00000003 Ry

     iteration # 19     ecut=    30.00 Ry     beta= 0.70
     Davidson diagonalization with overlap

---- Real-time Memory Report at c_bands before calling an iterative solver
            88 MiB given to the printing process from OS
             0 MiB allocation reported by mallinfo(arena+hblkhd)
          1310 MiB available memory on the node where the printing process lives
------------------
     ethr =  3.44E-11,  avg # of iterations =  3.8

     total cpu time spent up to now is      259.9 secs

     total energy              =   -1411.31206529 Ry
     estimated scf accuracy    <       0.00000001 Ry

     iteration # 20     ecut=    30.00 Ry     beta= 0.70
     Davidson diagonalization with overlap

---- Real-time Memory Report at c_bands before calling an iterative solver
            88 MiB given to the printing process from OS
             0 MiB allocation reported by mallinfo(arena+hblkhd)
          1306 MiB available memory on the node where the printing process lives
------------------
     ethr =  1.28E-11,  avg # of iterations =  2.4

     total cpu time spent up to now is      264.7 secs

     total energy              =   -1411.31206529 Ry
     estimated scf accuracy    <          2.4E-09 Ry

     iteration # 21     ecut=    30.00 Ry     beta= 0.70
     Davidson diagonalization with overlap

---- Real-time Memory Report at c_bands before calling an iterative solver
            88 MiB given to the printing process from OS
             0 MiB allocation reported by mallinfo(arena+hblkhd)
          1307 MiB available memory on the node where the printing process lives
------------------
     ethr =  2.84E-12,  avg # of iterations =  4.5

     total cpu time spent up to now is      270.3 secs

     total energy              =   -1411.31206529 Ry
     estimated scf accuracy    <          5.1E-10 Ry

     iteration # 22     ecut=    30.00 Ry     beta= 0.70
     Davidson diagonalization with overlap

---- Real-time Memory Report at c_bands before calling an iterative solver
            88 MiB given to the printing process from OS
             0 MiB allocation reported by mallinfo(arena+hblkhd)
          1307 MiB available memory on the node where the printing process lives
------------------
     ethr =  6.05E-13,  avg # of iterations =  4.1

     total cpu time spent up to now is      276.1 secs

     End of self-consistent calculation

          k = 0.0000 0.0000 0.0000 (  3203 PWs)   bands (ev):

   -68.8933 -68.8923 -68.8923 -68.8919 -37.6950 -37.6950 -37.6933 -37.6877
   -37.6877 -37.6873 -37.6867 -37.6857 -37.6811 -37.6782 -37.6782 -37.6746
    -4.6884  -3.6329  -3.6328  -3.2900   3.8900   3.9174   3.9174   5.7157
     5.7276   5.7619   5.9868   5.9868   5.9874   5.9874   6.1926   6.2377
     8.6986   9.4407   9.4469   9.6499   9.6499   9.6631   9.6631   9.7958
     9.7958   9.9018   9.9967  10.3272  10.3704  11.6994  11.6994  11.7279
    11.7279  13.1675

     occupation numbers 
     1.0000   1.0000   1.0000   1.0000   1.0000   1.0000   1.0000   1.0000
     1.0000   1.0000   1.0000   1.0000   1.0000   1.0000   1.0000   1.0000
     1.0000   1.0000   1.0000   1.0000   1.0000   1.0000   1.0000   1.0000
     1.0000   1.0000   1.0000   1.0000   1.0000   1.0000   1.0000   1.0000
     1.0000   1.0000   1.0000   1.0000   1.0000   1.0000   1.0000   0.9982
     0.9982   0.9649   0.7952   0.0045   0.0011   0.0000   0.0000   0.0000
     0.0000   0.0000

          k =-0.0000-0.0000 0.5290 (  3184 PWs)   bands (ev):

   -68.8929 -68.8922 -68.8922 -68.8919 -37.6936 -37.6936 -37.6923 -37.6906
   -37.6905 -37.6905 -37.6868 -37.6854 -37.6816 -37.6794 -37.6794 -37.6754
    -4.3624  -3.5267  -3.5267  -3.4220   4.2330   4.2469   4.2469   5.0784
     5.6101   5.6101   5.6934   5.8126   5.8218   6.0551   6.0551   6.1101
     8.8387   9.1486   9.1486   9.4012   9.4085   9.6979   9.6979   9.7800
     9.7915   9.7988   9.7988  10.9176  11.0672  11.2732  11.2732  11.3651
    11.3651  11.6622

     occupation numbers 
     1.0000   1.0000   1.0000   1.0000   1.0000   1.0000   1.0000   1.0000
     1.0000   1.0000   1.0000   1.0000   1.0000   1.0000   1.0000   1.0000
     1.0000   1.0000   1.0000   1.0000   1.0000   1.0000   1.0000   1.0000
     1.0000   1.0000   1.0000   1.0000   1.0000   1.0000   1.0000   1.0000
     1.0000   1.0000   1.0000   1.0000   1.0000   1.0000   1.0000   0.9990
     0.9984   0.9980   0.9980   0.0000   0.0000   0.0000   0.0000   0.0000
     0.0000   0.0000

          k =-0.0001-0.0000 1.0580 (  3151 PWs)   bands (ev):

   -68.8923 -68.8922 -68.8918 -68.8918 -37.6985 -37.6973 -37.6973 -37.6954
   -37.6887 -37.6887 -37.6835 -37.6831 -37.6823 -37.6801 -37.6801 -37.6772
    -3.7557  -3.6072  -3.3277  -3.3277   4.0060   4.0060   4.0275   4.0894
     5.8375   5.9300   5.9305   5.9893   6.0503   6.0504   6.1820   6.1820
     8.6909   8.6909   9.5098   9.5720   9.5841   9.6602   9.8094   9.8094
     9.8350   9.9125   9.9125  10.0935  10.5468  10.5468  10.6479  10.6479
[...]
    13.4231  13.5065

     occupation numbers 
     1.0000   1.0000   1.0000   1.0000   1.0000   1.0000   1.0000   1.0000
     1.0000   1.0000   1.0000   1.0000   1.0000   1.0000   1.0000   1.0000
     1.0000   1.0000   1.0000   1.0000   1.0000   1.0000   1.0000   1.0000
     1.0000   1.0000   1.0000   1.0000   1.0000   1.0000   1.0000   1.0000
     1.0000   1.0000   1.0000   1.0000   1.0000   1.0000   1.0000   0.9999
     0.8070   0.7362   0.2585   0.0000   0.0000   0.0000   0.0000   0.0000
     0.0000   0.0000

          k =-0.3715 0.2155 0.1525 (  2250 PWs)   bands (ev):

   -67.4771 -67.4764 -67.4758 -67.4756 -36.2822 -36.2797 -36.2744 -36.2629
   -36.2627 -36.2621 -36.2586 -36.2584 -36.2558 -36.2546 -36.2534 -36.2511
    -3.2019  -2.5744  -2.1163  -1.9046   5.4051   5.4546   5.6352   6.5481
     7.0786   7.1637   7.2632   7.2862   7.3291   7.4210   7.5802   7.7958
    10.1528  10.8095  10.9673  11.0531  11.0545  11.1317  11.3784  11.4668
    11.5319  11.5455  12.3235  12.6893  12.8831  13.4428  13.5266  14.1400
    14.3020  14.4383

     occupation numbers 
     1.0000   1.0000   1.0000   1.0000   1.0000   1.0000   1.0000   1.0000
     1.0000   1.0000   1.0000   1.0000   1.0000   1.0000   1.0000   1.0000
     1.0000   1.0000   1.0000   1.0000   1.0000   1.0000   1.0000   1.0000
     1.0000   1.0000   1.0000   1.0000   1.0000   1.0000   1.0000   1.0000
     1.0000   1.0000   1.0000   1.0000   1.0000   1.0000   1.0000   1.0000
     0.9997   0.9995   0.0000   0.0000   0.0000   0.0000   0.0000   0.0000
     0.0000   0.0000

          k =-0.3755 0.2132-0.4029 (  2248 PWs)   bands (ev):

   -67.4769 -67.4759 -67.4758 -67.4753 -36.2809 -36.2768 -36.2762 -36.2650
   -36.2620 -36.2617 -36.2615 -36.2605 -36.2590 -36.2589 -36.2573 -36.2538
    -3.0208  -2.2308  -2.1441  -1.7731   5.6924   5.7004   5.7083   6.3858
     6.8570   6.9273   6.9478   7.1949   7.2401   7.5020   7.5099   7.6749
    10.0522  10.6383  10.8880  10.9040  10.9604  11.0659  11.1727  11.2817
    11.7567  11.8393  11.8619  12.4036  13.0158  13.1019  13.1737  14.0366
    14.2313  14.2867

     occupation numbers 
     1.0000   1.0000   1.0000   1.0000   1.0000   1.0000   1.0000   1.0000
     1.0000   1.0000   1.0000   1.0000   1.0000   1.0000   1.0000   1.0000
     1.0000   1.0000   1.0000   1.0000   1.0000   1.0000   1.0000   1.0000
     1.0000   1.0000   1.0000   1.0000   1.0000   1.0000   1.0000   1.0000
     1.0000   1.0000   1.0000   1.0000   1.0000   1.0000   1.0000   1.0000
     0.8656   0.5979   0.5051   0.0000   0.0000   0.0000   0.0000   0.0000
     0.0000   0.0000

          k =-0.3794 0.2109-0.9583 (  2235 PWs)   bands (ev):

   -67.4759 -67.4755 -67.4755 -67.4752 -36.2787 -36.2752 -36.2745 -36.2732
   -36.2695 -36.2654 -36.2645 -36.2635 -36.2617 -36.2612 -36.2580 -36.2567
    -2.3212  -2.0248  -1.9527  -1.8096   5.5776   5.6672   5.6755   5.7082
     6.7730   6.7906   7.1602   7.1766   7.3558   7.5551   7.5766   7.6212
    10.2418  10.3747  10.6393  10.7038  11.1804  11.2846  11.2987  11.4714
    11.6350  11.6463  11.9390  12.2111  12.6784  12.7686  13.0174  13.0472
    13.4672  13.5156

     occupation numbers 
     1.0000   1.0000   1.0000   1.0000   1.0000   1.0000   1.0000   1.0000
     1.0000   1.0000   1.0000   1.0000   1.0000   1.0000   1.0000   1.0000
     1.0000   1.0000   1.0000   1.0000   1.0000   1.0000   1.0000   1.0000
     1.0000   1.0000   1.0000   1.0000   1.0000   1.0000   1.0000   1.0000
     1.0000   1.0000   1.0000   1.0000   1.0000   1.0000   1.0000   1.0000
     0.9911   0.9879   0.2153   0.0001   0.0000   0.0000   0.0000   0.0000
     0.0000   0.0000

          k =-0.3636 0.2201 1.2632 (  2241 PWs)   bands (ev):

   -67.4758 -67.4756 -67.4756 -67.4753 -36.2787 -36.2778 -36.2759 -36.2731
   -36.2703 -36.2674 -36.2634 -36.2608 -36.2598 -36.2595 -36.2582 -36.2576
    -2.1880  -2.0734  -2.0643  -1.7739   5.4128   5.4777   5.5209   5.5363
     6.9409   7.1010   7.1743   7.4251   7.4356   7.5375   7.5718   7.6963
    10.1004  10.1516  10.9805  11.0467  11.1562  11.1736  11.2534  11.6660
    11.7084  11.7694  11.8136  12.3736  12.3979  12.7099  12.9515  12.9848
    13.1955  13.3085

     occupation numbers 
     1.0000   1.0000   1.0000   1.0000   1.0000   1.0000   1.0000   1.0000
     1.0000   1.0000   1.0000   1.0000   1.0000   1.0000   1.0000   1.0000
     1.0000   1.0000   1.0000   1.0000   1.0000   1.0000   1.0000   1.0000
     1.0000   1.0000   1.0000   1.0000   1.0000   1.0000   1.0000   1.0000
     1.0000   1.0000   1.0000   1.0000   1.0000   1.0000   1.0000   0.9798
     0.9462   0.8349   0.6966   0.0000   0.0000   0.0000   0.0000   0.0000
     0.0000   0.0000

          k =-0.3676 0.2178 0.7079 (  2234 PWs)   bands (ev):

   -67.4763 -67.4762 -67.4758 -67.4753 -36.2779 -36.2770 -36.2703 -36.2694
   -36.2676 -36.2620 -36.2617 -36.2597 -36.2577 -36.2574 -36.2563 -36.2560
    -2.6691  -2.5427  -2.1703  -1.8452   5.7748   5.8472   5.9260   6.0506
     6.5756   6.9197   7.0702   7.3210   7.3556   7.3910   7.5489   7.6570
    10.2678  10.4898  10.6362  10.7578  10.9831  11.1933  11.3183  11.4155
    11.7102  11.9274  12.6354  12.7409  12.8264  12.9429  13.3731  13.5321
    13.5848  13.9964

     occupation numbers 
     1.0000   1.0000   1.0000   1.0000   1.0000   1.0000   1.0000   1.0000
     1.0000   1.0000   1.0000   1.0000   1.0000   1.0000   1.0000   1.0000
     1.0000   1.0000   1.0000   1.0000   1.0000   1.0000   1.0000   1.0000
     1.0000   1.0000   1.0000   1.0000   1.0000   1.0000   1.0000   1.0000
     1.0000   1.0000   1.0000   1.0000   1.0000   1.0000   1.0000   1.0000
     0.9441   0.2522   0.0000   0.0000   0.0000   0.0000   0.0000   0.0000
     0.0000   0.0000

          k = 0.3684-0.6473-0.5554 (  2234 PWs)   bands (ev):

   -67.4766 -67.4762 -67.4756 -67.4754 -36.2782 -36.2774 -36.2705 -36.2696
   -36.2671 -36.2628 -36.2617 -36.2590 -36.2587 -36.2566 -36.2561 -36.2552
    -2.7869  -2.4983  -2.0408  -1.8863   5.7326   5.8046   5.8743   6.1280
     6.6114   6.8913   7.1253   7.2557   7.3547   7.4145   7.5674   7.6522
    10.3617  10.5489  10.5599  10.7530  11.0336  11.1395  11.2401  11.4141
    11.7141  11.9094  12.5419  12.6882  12.7065  13.1810  13.4468  13.5681
    13.7257  13.7594

     occupation numbers 
     1.0000   1.0000   1.0000   1.0000   1.0000   1.0000   1.0000   1.0000
     1.0000   1.0000   1.0000   1.0000   1.0000   1.0000   1.0000   1.0000
     1.0000   1.0000   1.0000   1.0000   1.0000   1.0000   1.0000   1.0000
     1.0000   1.0000   1.0000   1.0000   1.0000   1.0000   1.0000   1.0000
     1.0000   1.0000   1.0000   1.0000   1.0000   1.0000   1.0000   1.0000
     0.9394   0.3152   0.0000   0.0000   0.0000   0.0000   0.0000   0.0000
     0.0000   0.0000

          k = 0.3645-0.6496-1.1108 (  2226 PWs)   bands (ev):

   -67.4759 -67.4754 -67.4754 -67.4753 -36.2759 -36.2756 -36.2742 -36.2720
   -36.2696 -36.2673 -36.2654 -36.2639 -36.2627 -36.2609 -36.2585 -36.2559
    -2.3880  -1.9547  -1.8985  -1.8701   5.7474   5.7784   5.8114   5.9373
     6.5070   6.6491   6.7731   7.1701   7.4439   7.5469   7.5720   7.6232
    10.3527  10.5265  10.5306  10.5544  11.0596  11.0658  11.1140  11.5020
    11.7797  11.8024  11.9255  12.5140  12.6619  12.6711  12.6809  13.3518
    13.4231  13.5065

     occupation numbers 
     1.0000   1.0000   1.0000   1.0000   1.0000   1.0000   1.0000   1.0000
     1.0000   1.0000   1.0000   1.0000   1.0000   1.0000   1.0000   1.0000
     1.0000   1.0000   1.0000   1.0000   1.0000   1.0000   1.0000   1.0000
     1.0000   1.0000   1.0000   1.0000   1.0000   1.0000   1.0000   1.0000
     1.0000   1.0000   1.0000   1.0000   1.0000   1.0000   1.0000   0.9999
     0.8070   0.7362   0.2585   0.0000   0.0000   0.0000   0.0000   0.0000
     0.0000   0.0000

     the Fermi energy is    11.8631 ev

!    total energy              =   -1410.93364673 Ry
     total all-electron energy =    -12462.367261 Ry
     estimated scf accuracy    <          2.4E-13 Ry
     smearing contrib. (-TS)   =      -0.00670106 Ry
     internal energy E=F+TS    =   -1410.92694566 Ry

     The total energy is F=E-TS. E is the sum of the following terms:
     one-electron contribution =    -509.50122299 Ry
     hartree contribution      =     301.87551229 Ry
     xc contribution           =    -132.21298060 Ry
     ewald contribution        =    -576.19763042 Ry
     one-center paw contrib.   =    -494.89062394 Ry
      -> PAW hartree energy AE =     368.69938034 Ry
      -> PAW hartree energy PS =    -370.52654494 Ry
      -> PAW xc energy AE      =    -209.38603533 Ry
      -> PAW xc energy PS      =      56.03268379 Ry
      -> total E_H with PAW    =     300.04834769 Ry
      -> total E_XC with PAW   =    -285.56633215 Ry

     convergence has been achieved in  24 iterations

     Forces acting on atoms (cartesian axes, Ry/au):

     atom    1 type  1   force =    -0.00088460   -0.00051062    0.00066592
     atom    2 type  2   force =    -0.00088497   -0.00051003    0.00066593
     atom    3 type  3   force =    -0.00088403   -0.00051122    0.00066576
     atom    4 type  4   force =    -0.00088384   -0.00051043    0.00066545
     atom    5 type  5   force =     0.00088451    0.00051076   -0.00066595
     atom    6 type  5   force =     0.00088446    0.00051023   -0.00066569
     atom    7 type  5   force =     0.00088425    0.00051094   -0.00066583
     atom    8 type  5   force =     0.00088421    0.00051037   -0.00066558
     The non-local contrib.  to forces
     atom    1 type  1   force =    -0.00319908   -0.00184753    0.00967357
     atom    2 type  2   force =    -0.00319779   -0.00184816    0.00967297
     atom    3 type  3   force =    -0.00320000   -0.00184554    0.00967342
     atom    4 type  4   force =    -0.00320120   -0.00184771    0.00967488
     atom    5 type  5   force =    -0.00347366   -0.00200544    0.00573987
     atom    6 type  5   force =    -0.00347370   -0.00200563    0.00574003
     atom    7 type  5   force =    -0.00347364   -0.00200540    0.00573991
     atom    8 type  5   force =    -0.00347368   -0.00200566    0.00574004
     The ionic contribution  to forces
     atom    1 type  1   force =    -0.08538631   -0.04928081    0.15219751
     atom    2 type  2   force =    -0.08542017   -0.04923737    0.15220343
     atom    3 type  3   force =    -0.08533572   -0.04934790    0.15218958
     atom    4 type  4   force =    -0.08530208   -0.04926726    0.15214123
     atom    5 type  5   force =     0.08537786    0.04928716   -0.15219537
     atom    6 type  5   force =     0.08537690    0.04925908   -0.15218457
     atom    7 type  5   force =     0.08534600    0.04930713   -0.15218209
     atom    8 type  5   force =     0.08534351    0.04927997   -0.15216972
     The local contribution  to forces
     atom    1 type  1   force =     0.08826633    0.05094405   -0.16174619
     atom    2 type  2   force =     0.08829853    0.05090152   -0.16175135
     atom    3 type  3   force =     0.08821658    0.05100891   -0.16173796
     atom    4 type  4   force =     0.08818437    0.05093095   -0.16169131
     atom    5 type  5   force =    -0.08102338   -0.04677327    0.14599882
     atom    6 type  5   force =    -0.08102226   -0.04674499    0.14598783
     atom    7 type  5   force =    -0.08099156   -0.04679303    0.14598545
     atom    8 type  5   force =    -0.08098925   -0.04676586    0.14597319
     The core correction contribution to forces
     atom    1 type  1   force =    -0.00051777   -0.00029891    0.00067376
     atom    2 type  2   force =    -0.00051789   -0.00029885    0.00067377
     atom    3 type  3   force =    -0.00051776   -0.00029908    0.00067377
     atom    4 type  4   force =    -0.00051769   -0.00029892    0.00067369
     atom    5 type  5   force =     0.00005103    0.00002946   -0.00007615
     atom    6 type  5   force =     0.00005103    0.00002948   -0.00007616
     atom    7 type  5   force =     0.00005104    0.00002945   -0.00007616
     atom    8 type  5   force =     0.00005104    0.00002947   -0.00007617
     The Hubbard contrib.    to forces
     atom    1 type  1   force =     0.00000000    0.00000000    0.00000000
     atom    2 type  2   force =     0.00000000    0.00000000    0.00000000
     atom    3 type  3   force =     0.00000000    0.00000000    0.00000000
     atom    4 type  4   force =     0.00000000    0.00000000    0.00000000
     atom    5 type  5   force =     0.00000000    0.00000000    0.00000000
     atom    6 type  5   force =     0.00000000    0.00000000    0.00000000
     atom    7 type  5   force =     0.00000000    0.00000000    0.00000000
     atom    8 type  5   force =     0.00000000    0.00000000    0.00000000
     The SCF correction term to forces
     atom    1 type  1   force =    -0.00000031   -0.00000001    0.00000023
     atom    2 type  2   force =    -0.00000019    0.00000024    0.00000005
     atom    3 type  3   force =     0.00000032   -0.00000021   -0.00000010
     atom    4 type  4   force =     0.00000023   -0.00000008   -0.00000008
     atom    5 type  5   force =     0.00000012    0.00000024   -0.00000016
     atom    6 type  5   force =    -0.00000006   -0.00000030    0.00000014
     atom    7 type  5   force =    -0.00000013    0.00000020    0.00000001
     atom    8 type  5   force =     0.00000004   -0.00000015    0.00000003

     Total force =     0.003448     Total SCF correction =     0.000001


     Computing stress (Cartesian axis) and pressure

          total   stress  (Ry/bohr**3)                   (kbar)     P=     -497.31
  -0.00335560   0.00000572  -0.00002584         -493.63        0.84       -3.80
   0.00000572  -0.00336220  -0.00001492            0.84     -494.60       -2.19
  -0.00002584  -0.00001492  -0.00342416           -3.80       -2.19     -503.71

     kinetic stress (kbar)  22492.72     -0.88    -29.56
                               -0.88  22493.74    -17.06
                              -29.56    -17.06  22440.32

     local   stress (kbar)   2279.63    -76.10    259.10
                              -76.10   2367.50    149.59
                              259.10    149.59   2682.19

     nonloc. stress (kbar)  -1573.03     -1.02     26.69
                               -1.02  -1571.86     15.41
                               26.69     15.41  -1526.65

     hartree stress (kbar)  18379.83     46.76    -64.98
                               46.76  18325.83    -37.52
                              -64.98    -37.52  18326.31

     exc-cor stress (kbar)  -3354.77     -0.22     -1.00
                               -0.22  -3354.52     -0.58
                               -1.00     -0.58  -3356.92

     corecor stress (kbar)  -3833.73      0.12      1.41
                                0.12  -3833.87      0.82
                                1.41      0.82  -3833.69

     ewald   stress (kbar) -34884.26     32.18   -195.46
                               32.18 -34921.42   -112.85
                             -195.46   -112.85 -35235.28

     hubbard stress (kbar)      0.00      0.00      0.00
                                0.00      0.00      0.00
                                0.00      0.00      0.00

     DFT-D   stress (kbar)      0.00      0.00      0.00
                                0.00      0.00      0.00
                                0.00      0.00      0.00

     XDM     stress (kbar)      0.00      0.00      0.00
                                0.00      0.00      0.00
                                0.00      0.00      0.00

     dft-nl  stress (kbar)      0.00      0.00      0.00
                                0.00      0.00      0.00
                                0.00      0.00      0.00

     TS-vdW  stress (kbar)      0.00      0.00      0.00
                                0.00      0.00      0.00
                                0.00      0.00      0.00

     MDB     stress (kbar)      0.00      0.00      0.00
                                0.00      0.00      0.00
                                0.00      0.00      0.00

     3D-RISM stress (kbar)      0.00      0.00      0.00
                                0.00      0.00      0.00
                                0.00      0.00      0.00


     Writing all to output data dir ./temp/mns.save/ :
     XML data file, charge density, pseudopotentials, collected wavefunctions

     init_run     :      4.42s CPU      4.52s WALL (       2 calls)
     electrons    :   1484.16s CPU   1510.27s WALL (      15 calls)
     update_pot   :      4.50s CPU      4.51s WALL (      13 calls)
     forces       :     20.13s CPU     20.26s WALL (      15 calls)
     stress       :     66.24s CPU     66.34s WALL (      15 calls)

     Called by init_run:
     wfcinit      :      2.49s CPU      2.54s WALL (       2 calls)
     wfcinit:atom :      0.02s CPU      0.02s WALL (      46 calls)
     wfcinit:wfcr :      2.35s CPU      2.40s WALL (      46 calls)
     potinit      :      0.93s CPU      0.94s WALL (       2 calls)
     hinit0       :      0.67s CPU      0.68s WALL (       2 calls)

     Called by electrons:
     c_bands      :   1182.01s CPU   1203.88s WALL (     271 calls)
     sum_band     :    169.03s CPU    173.04s WALL (     271 calls)
     v_of_rho     :      3.87s CPU      3.97s WALL (     275 calls)
     v_h          :      0.26s CPU      0.27s WALL (     275 calls)
     v_xc         :      4.01s CPU      4.11s WALL (     305 calls)
     newd         :     51.94s CPU     52.03s WALL (     275 calls)
     PAW_pot      :     87.65s CPU     87.71s WALL (     288 calls)
     mix_rho      :      0.74s CPU      0.75s WALL (     271 calls)

     Called by c_bands:
     init_us_2    :     17.34s CPU     17.49s WALL (   13501 calls)
     cegterg      :   1150.41s CPU   1172.06s WALL (    6233 calls)

     Called by sum_band:
     sum_band:wei :      0.17s CPU      0.18s WALL (     271 calls)
     sum_band:loo :    117.91s CPU    121.84s WALL (     271 calls)
     sum_band:buf :      3.33s CPU      3.36s WALL (    6233 calls)
     sum_band:ini :      7.43s CPU      7.47s WALL (    6233 calls)
     sum_band:cal :     62.65s CPU     63.27s WALL (    6532 calls)
     sum_band:bec :      1.80s CPU      1.81s WALL (    6532 calls)
     addusdens    :     50.14s CPU     50.19s WALL (     271 calls)
                                        0.00s GPU  (     271 calls)
     addusd:skk   :      0.16s CPU      0.16s WALL (    1355 calls)
                                        0.00s GPU  (    1355 calls)

     Called by *egterg:
     cdiaghg      :    113.67s CPU    113.83s WALL (   26543 calls)
     cegterg:over :    109.17s CPU    110.05s WALL (   20862 calls)
     cegterg:upda :     57.46s CPU     57.53s WALL (   20862 calls)
     cegterg:last :    131.84s CPU    131.93s WALL (   12752 calls)
     h_psi        :    543.37s CPU    563.36s WALL (   27141 calls)
     s_psi        :    139.06s CPU    139.22s WALL (   27141 calls)
     g_psi        :      1.04s CPU      1.04s WALL (   20862 calls)

     Called by h_psi:
     h_psi:calbec :    169.08s CPU    171.11s WALL (   27141 calls)
     vloc_psi     :    226.84s CPU    244.62s WALL (   27141 calls)
     add_vuspsi   :    142.69s CPU    142.86s WALL (   27141 calls)

     General routines
     calbec       :    248.01s CPU    250.82s WALL (   35398 calls)
     fft          :      2.25s CPU      2.34s WALL (    3944 calls)
     ffts         :      0.42s CPU      0.43s WALL (     546 calls)
     fftw         :    236.98s CPU    255.70s WALL ( 1910736 calls)
     interpolate  :      0.55s CPU      0.56s WALL (     275 calls)

     Parallel routines

     PAW routines
     PAW_pot      :     87.65s CPU     87.71s WALL (     288 calls)

     PWSCF        :  26m30.24s CPU  26m56.83s WALL


   This run was terminated on:  20: 8:57  31Jan2025            

=------------------------------------------------------------------------------=
   JOB DONE.
=------------------------------------------------------------------------------=
