
     Program PWSCF v.7.3.1 starts on 12Jan2025 at 12:45: 3 

     This program is part of the open-source Quantum ESPRESSO suite
     for quantum simulation of materials; please cite
         "P. Giannozzi et al., J. Phys.:Condens. Matter 21 395502 (2009);
         "P. Giannozzi et al., J. Phys.:Condens. Matter 29 465901 (2017);
         "P. Giannozzi et al., J. Chem. Phys. 152 154105 (2020);
          URL http://www.quantum-espresso.org", 
     in publications or presentations arising from this work. More details at
     http://www.quantum-espresso.org/quote

     Parallel version (MPI), running on     6 processors

     MPI processes distributed on     1 nodes
     1133 MiB available memory on the printing compute node when the environment starts

     Reading input from relax.in

     Current dimensions of program PWSCF are:
     Max number of different atomic species (ntypx) = 10
     Max number of k-points (npk) =  40000
     Max angular momentum in pseudopotentials (lmaxx) =  4
     file Mn.pbe-spn-kjpaw_psl.0.3.1.UPF: wavefunction(s)  3P 3D renormalized
     file S.pbe-n-kjpaw_psl.1.0.0.UPF: wavefunction(s)  3S 3P renormalized

     R & G space division:  proc/nbgrp/npool/nimage =       6
     Subspace diagonalization in iterative solution of the eigenvalue problem:
     a serial algorithm will be used


     Parallelization info
     --------------------
     sticks:   dense  smooth     PW     G-vecs:    dense   smooth      PW
     Min          93      75     24                 1464     1062     189
     Max          94      76     26                 1468     1063     190
     Sum         559     451    151                 8801     6375    1139

     Using Slab Decomposition



     bravais-lattice index     =           -5
     lattice parameter (alat)  =       7.3933  a.u.
     unit-cell volume          =     285.7574 (a.u.)^3
     number of atoms/cell      =            2
     number of atomic types    =            2
     number of electrons       =        21.00
     number of Kohn-Sham states=           15
     kinetic-energy cutoff     =      30.0000  Ry
     charge density cutoff     =     150.0000  Ry
     scf convergence threshold =      1.0E-10
     mixing beta               =       0.7000
     number of iterations used =            8  plain     mixing
     energy convergence thresh.=      1.0E-05
     force convergence thresh. =      1.0E-04
     Exchange-correlation= SLA  PW   PBX  PBC
                           (   1   4   3   4   0   0   0)
     nstep                     =           50


     celldm(1)=   7.393286  celldm(2)=   0.000000  celldm(3)=   0.000000
     celldm(4)=   0.500000  celldm(5)=   0.000000  celldm(6)=   0.000000

     crystal axes: (cart. coord. in units of alat)
               a(1) = (   0.000000   0.707107   0.707107 )  
               a(2) = (   0.707107   0.000000   0.707107 )  
               a(3) = (   0.707107   0.707107   0.000000 )  

     reciprocal axes: (cart. coord. in units 2 pi/alat)
               b(1) = ( -0.707107  0.707107  0.707107 )  
               b(2) = (  0.707107 -0.707107  0.707107 )  
               b(3) = (  0.707107  0.707107 -0.707107 )  


     PseudoPot. # 1 for Mn read from file:
     ./../../../pseudos/Mn.pbe-spn-kjpaw_psl.0.3.1.UPF
     MD5 check sum: ba19e6d7ccbc12830efad05ba8577d9c
     Pseudo is Projector augmented-wave + core cor, Zval = 15.0
     Generated using &quot;atomic&quot; code by A. Dal Corso  v.6.2.2
     Shape of augmentation charge: PSQ
     Using radial grid of 1187 points,  6 beta functions with: 
                l(1) =   0
                l(2) =   0
                l(3) =   1
                l(4) =   1
                l(5) =   2
                l(6) =   2
     Q(r) pseudized with 0 coefficients 


     PseudoPot. # 2 for S  read from file:
     ./../../../pseudos/S.pbe-n-kjpaw_psl.1.0.0.UPF
     MD5 check sum: fb45dfebcf3e72a4e1bd4a866ec2e262
     Pseudo is Projector augmented-wave + core cor, Zval =  6.0
     Generated using &quot;atomic&quot; code by A. Dal Corso  v.6.3
     Shape of augmentation charge: PSQ
     Using radial grid of 1151 points,  6 beta functions with: 
                l(1) =   0
                l(2) =   0
                l(3) =   1
                l(4) =   1
                l(5) =   2
                l(6) =   2
     Q(r) pseudized with 0 coefficients 


     atomic species   valence    mass     pseudopotential
     Mn               15.00    54.93800     Mn( 1.00)
     S                 6.00    32.06500     S ( 1.00)

     Starting magnetic structure 
     atomic species   magnetization
     Mn              0.200
     S               0.000

     24 Sym. Ops. (no inversion) found


                                    s                        frac. trans.

      isym =  1     identity                                     

 cryst.   s( 1) = (     1          0          0      )
                  (     0          1          0      )
                  (     0          0          1      )

 cart.    s( 1) = (  1.0000000  0.0000000  0.0000000 )
                  (  0.0000000  1.0000000  0.0000000 )
                  (  0.0000000  0.0000000  1.0000000 )


      isym =  2     180 deg rotation - cart. axis [0,0,1]        

 cryst.   s( 2) = (     0          1         -1      )
                  (     1          0         -1      )
                  (     0          0         -1      )

 cart.    s( 2) = ( -1.0000000  0.0000000  0.0000000 )
                  (  0.0000000 -1.0000000  0.0000000 )
                  (  0.0000000  0.0000000  1.0000000 )


      isym =  3     180 deg rotation - cart. axis [0,1,0]        

 cryst.   s( 3) = (     0         -1          1      )
                  (     0         -1          0      )
                  (     1         -1          0      )

 cart.    s( 3) = ( -1.0000000  0.0000000  0.0000000 )
                  (  0.0000000  1.0000000  0.0000000 )
                  (  0.0000000  0.0000000 -1.0000000 )


      isym =  4     180 deg rotation - cart. axis [1,0,0]        

 cryst.   s( 4) = (    -1          0          0      )
                  (    -1          0          1      )
                  (    -1          1          0      )

 cart.    s( 4) = (  1.0000000  0.0000000  0.0000000 )
                  (  0.0000000 -1.0000000  0.0000000 )
                  (  0.0000000  0.0000000 -1.0000000 )


      isym =  5     120 deg rotation - cart. axis [-1,-1,-1]     

 cryst.   s( 5) = (     0          0          1      )
                  (     1          0          0      )
                  (     0          1          0      )

 cart.    s( 5) = (  0.0000000  1.0000000  0.0000000 )
                  (  0.0000000  0.0000000  1.0000000 )
                  (  1.0000000  0.0000000  0.0000000 )


      isym =  6     120 deg rotation - cart. axis [-1,1,1]       

 cryst.   s( 6) = (     1         -1          0      )
                  (     0         -1          1      )
                  (     0         -1          0      )

 cart.    s( 6) = (  0.0000000 -1.0000000  0.0000000 )
                  (  0.0000000  0.0000000  1.0000000 )
                  ( -1.0000000  0.0000000  0.0000000 )


      isym =  7     120 deg rotation - cart. axis [1,1,-1]       

 cryst.   s( 7) = (    -1          1          0      )
                  (    -1          0          0      )
                  (    -1          0          1      )

 cart.    s( 7) = (  0.0000000  1.0000000  0.0000000 )
                  (  0.0000000  0.0000000 -1.0000000 )
                  ( -1.0000000  0.0000000  0.0000000 )


      isym =  8     120 deg rotation - cart. axis [1,-1,1]       

 cryst.   s( 8) = (     0          0         -1      )
                  (     0          1         -1      )
                  (     1          0         -1      )

 cart.    s( 8) = (  0.0000000 -1.0000000  0.0000000 )
                  (  0.0000000  0.0000000 -1.0000000 )
                  (  1.0000000  0.0000000  0.0000000 )


      isym =  9     120 deg rotation - cart. axis [1,1,1]        

 cryst.   s( 9) = (     0          1          0      )
                  (     0          0          1      )
                  (     1          0          0      )

 cart.    s( 9) = (  0.0000000  0.0000000  1.0000000 )
                  (  1.0000000  0.0000000  0.0000000 )
                  (  0.0000000  1.0000000  0.0000000 )


      isym = 10     120 deg rotation - cart. axis [-1,1,-1]      

 cryst.   s(10) = (    -1          0          1      )
                  (    -1          1          0      )
                  (    -1          0          0      )

 cart.    s(10) = (  0.0000000  0.0000000  1.0000000 )
                  ( -1.0000000  0.0000000  0.0000000 )
                  (  0.0000000 -1.0000000  0.0000000 )


      isym = 11     120 deg rotation - cart. axis [1,-1,-1]      

 cryst.   s(11) = (     1          0         -1      )
                  (     0          0         -1      )
                  (     0          1         -1      )

 cart.    s(11) = (  0.0000000  0.0000000 -1.0000000 )
                  ( -1.0000000  0.0000000  0.0000000 )
                  (  0.0000000  1.0000000  0.0000000 )


      isym = 12     120 deg rotation - cart. axis [-1,-1,1]      

 cryst.   s(12) = (     0         -1          0      )
                  (     1         -1          0      )
                  (     0         -1          1      )

 cart.    s(12) = (  0.0000000  0.0000000 -1.0000000 )
                  (  1.0000000  0.0000000  0.0000000 )
                  (  0.0000000 -1.0000000  0.0000000 )


      isym = 13     inv. 180 deg rotation - cart. axis [1,1,0]   

 cryst.   s(13) = (     1          0         -1      )
                  (     0          1         -1      )
                  (     0          0         -1      )

 cart.    s(13) = (  0.0000000 -1.0000000  0.0000000 )
                  ( -1.0000000  0.0000000  0.0000000 )
                  (  0.0000000  0.0000000  1.0000000 )


      isym = 14     inv. 180 deg rotation - cart. axis [1,-1,0]  

 cryst.   s(14) = (     0          1          0      )
                  (     1          0          0      )
                  (     0          0          1      )

 cart.    s(14) = (  0.0000000  1.0000000  0.0000000 )
                  (  1.0000000  0.0000000  0.0000000 )
                  (  0.0000000  0.0000000  1.0000000 )


      isym = 15     inv.  90 deg rotation - cart. axis [0,0,-1]  

 cryst.   s(15) = (     0         -1          0      )
                  (     0         -1          1      )
                  (     1         -1          0      )

 cart.    s(15) = (  0.0000000 -1.0000000  0.0000000 )
                  (  1.0000000  0.0000000  0.0000000 )
                  (  0.0000000  0.0000000 -1.0000000 )


      isym = 16     inv.  90 deg rotation - cart. axis [0,0,1]   

 cryst.   s(16) = (    -1          0          1      )
                  (    -1          0          0      )
                  (    -1          1          0      )

 cart.    s(16) = (  0.0000000  1.0000000  0.0000000 )
                  ( -1.0000000  0.0000000  0.0000000 )
                  (  0.0000000  0.0000000 -1.0000000 )


      isym = 17     inv. 180 deg rotation - cart. axis [1,0,1]   

 cryst.   s(17) = (     1         -1          0      )
                  (     0         -1          0      )
                  (     0         -1          1      )

 cart.    s(17) = (  0.0000000  0.0000000 -1.0000000 )
                  (  0.0000000  1.0000000  0.0000000 )
                  ( -1.0000000  0.0000000  0.0000000 )


      isym = 18     inv. 180 deg rotation - cart. axis [-1,0,1]  

 cryst.   s(18) = (     0          0          1      )
                  (     0          1          0      )
                  (     1          0          0      )

 cart.    s(18) = (  0.0000000  0.0000000  1.0000000 )
                  (  0.0000000  1.0000000  0.0000000 )
                  (  1.0000000  0.0000000  0.0000000 )


      isym = 19     inv.  90 deg rotation - cart. axis [0,1,0]   

 cryst.   s(19) = (     0          0         -1      )
                  (     1          0         -1      )
                  (     0          1         -1      )

 cart.    s(19) = (  0.0000000  0.0000000 -1.0000000 )
                  (  0.0000000 -1.0000000  0.0000000 )
                  (  1.0000000  0.0000000  0.0000000 )


      isym = 20     inv.  90 deg rotation - cart. axis [0,-1,0]  

 cryst.   s(20) = (    -1          1          0      )
                  (    -1          0          1      )
                  (    -1          0          0      )

 cart.    s(20) = (  0.0000000  0.0000000  1.0000000 )
                  (  0.0000000 -1.0000000  0.0000000 )
                  ( -1.0000000  0.0000000  0.0000000 )


      isym = 21     inv. 180 deg rotation - cart. axis [0,1,1]   

 cryst.   s(21) = (    -1          0          0      )
                  (    -1          1          0      )
                  (    -1          0          1      )

 cart.    s(21) = (  1.0000000  0.0000000  0.0000000 )
                  (  0.0000000  0.0000000 -1.0000000 )
                  (  0.0000000 -1.0000000  0.0000000 )


      isym = 22     inv. 180 deg rotation - cart. axis [0,1,-1]  

 cryst.   s(22) = (     1          0          0      )
                  (     0          0          1      )
                  (     0          1          0      )

 cart.    s(22) = (  1.0000000  0.0000000  0.0000000 )
                  (  0.0000000  0.0000000  1.0000000 )
                  (  0.0000000  1.0000000  0.0000000 )


      isym = 23     inv.  90 deg rotation - cart. axis [-1,0,0]  

 cryst.   s(23) = (     0          1         -1      )
                  (     0          0         -1      )
                  (     1          0         -1      )

 cart.    s(23) = ( -1.0000000  0.0000000  0.0000000 )
                  (  0.0000000  0.0000000 -1.0000000 )
                  (  0.0000000  1.0000000  0.0000000 )


      isym = 24     inv.  90 deg rotation - cart. axis [1,0,0]   

 cryst.   s(24) = (     0         -1          1      )
                  (     1         -1          0      )
                  (     0         -1          0      )

 cart.    s(24) = ( -1.0000000  0.0000000  0.0000000 )
                  (  0.0000000  0.0000000  1.0000000 )
                  (  0.0000000 -1.0000000  0.0000000 )


     point group T_d (-43m) 
     there are  5 classes
     the character table:

       E     8C3   3C2   6S4   6s_d 
A_1    1.00  1.00  1.00  1.00  1.00
A_2    1.00  1.00  1.00 -1.00 -1.00
E      2.00 -1.00  2.00  0.00  0.00
T_1    3.00  0.00 -1.00  1.00 -1.00
T_2    3.00  0.00 -1.00 -1.00  1.00

     the symmetry operations in each class and the name of the first element:

     E        1
          identity                                               
     8C3      5    7    8    6   12    9   10   11
          120 deg rotation - cart. axis [-1,-1,-1]               
     3C2      2    3    4
          180 deg rotation - cart. axis [0,0,1]                  
     6S4     15   16   20   19   23   24
          inv.  90 deg rotation - cart. axis [0,0,-1]            
     6s_d    13   14   17   18   21   22
          inv. 180 deg rotation - cart. axis [1,1,0]             

   Cartesian axes

     site n.     atom                  positions (alat units)
         1        Mn     tau(   1) = (   1.0606602   1.0606602   1.0606602  )
         2        S      tau(   2) = (   0.0000000   0.0000000   0.0000000  )

   Crystallographic axes

     site n.     atom                  positions (cryst. coord.)
         1        Mn     tau(   1) = (  0.7500000  0.7500000  0.7500000  )
         2        S      tau(   2) = (  0.0000000  0.0000000  0.0000000  )

     number of k points=    10  Gaussian smearing, width (Ry)=  0.0100
                       cart. coord. in units 2pi/alat
        k(    1) = (   0.0000000   0.0000000   0.0000000), wk =   0.0080000
        k(    2) = (   0.1414214   0.1414214  -0.1414214), wk =   0.0640000
        k(    3) = (   0.2828427   0.2828427  -0.2828427), wk =   0.0640000
        k(    4) = (   0.2828427   0.0000000   0.0000000), wk =   0.0480000
        k(    5) = (   0.4242641   0.1414214  -0.1414214), wk =   0.1920000
        k(    6) = (  -0.1414214  -0.4242641   0.4242641), wk =   0.1920000
        k(    7) = (   0.0000000  -0.2828427   0.2828427), wk =   0.0960000
        k(    8) = (   0.5656854   0.0000000   0.0000000), wk =   0.0480000
        k(    9) = (   0.0000000  -0.5656854   0.5656854), wk =   0.0960000
        k(   10) = (  -0.1414214  -0.4242641   0.7071068), wk =   0.1920000

                       cryst. coord.
        k(    1) = (   0.0000000   0.0000000   0.0000000), wk =   0.0080000
        k(    2) = (   0.0000000   0.0000000   0.2000000), wk =   0.0640000
        k(    3) = (   0.0000000   0.0000000   0.4000000), wk =   0.0640000
        k(    4) = (   0.0000000   0.2000000   0.2000000), wk =   0.0480000
        k(    5) = (   0.0000000   0.2000000   0.4000000), wk =   0.1920000
        k(    6) = (   0.0000000   0.2000000  -0.4000000), wk =   0.1920000
        k(    7) = (   0.0000000   0.2000000  -0.2000000), wk =   0.0960000
        k(    8) = (   0.0000000   0.4000000   0.4000000), wk =   0.0480000
        k(    9) = (   0.0000000   0.4000000  -0.4000000), wk =   0.0960000
        k(   10) = (   0.2000000   0.4000000  -0.4000000), wk =   0.1920000

     Dense  grid:     8801 G-vectors     FFT dimensions: (  30,  30,  30)

     Smooth grid:     6375 G-vectors     FFT dimensions: (  25,  25,  25)

     Dynamical RAM for                 wfc:       0.03 MB

     Dynamical RAM for     wfc (w. buffer):       0.63 MB

     Dynamical RAM for           str. fact:       0.04 MB

     Dynamical RAM for           local pot:       0.00 MB

     Dynamical RAM for          nlocal pot:       0.07 MB

     Dynamical RAM for                qrad:       1.97 MB

     Dynamical RAM for          rho,v,vnew:       0.34 MB

     Dynamical RAM for               rhoin:       0.11 MB

     Dynamical RAM for            rho*nmix:       0.72 MB

     Dynamical RAM for           G-vectors:       0.09 MB

     Dynamical RAM for          h,s,v(r/c):       0.04 MB

     Dynamical RAM for          <psi|beta>:       0.01 MB

     Dynamical RAM for                 psi:       0.06 MB

     Dynamical RAM for                hpsi:       0.06 MB

     Dynamical RAM for                spsi:       0.06 MB

     Dynamical RAM for      wfcinit/wfcrot:       0.07 MB

     Dynamical RAM for           addusdens:       4.20 MB

     Dynamical RAM for          addusforce:       4.21 MB

     Estimated static dynamical RAM per process >       3.54 MB

     Estimated max dynamical RAM per process >       8.46 MB

     Estimated total dynamical RAM >      50.78 MB

     Check: negative core charge=   -0.000237
     Generating pointlists ...
     new r_m :   0.2526 (alat units)  1.8676 (a.u.) for type    1
     new r_m :   0.2526 (alat units)  1.8676 (a.u.) for type    2

     Initial potential from superposition of free atoms

     starting charge      20.9995, renormalised to      21.0000
     Starting wfcs are   14 randomized atomic wfcs +    1 random wfcs
     Checking if some PAW data can be deallocated... 
       PAW data deallocated on    3 nodes for type:  1
       PAW data deallocated on    3 nodes for type:  2

     total cpu time spent up to now is        0.9 secs

     Self-consistent Calculation

     iteration #  1     ecut=    30.00 Ry     beta= 0.70
     Davidson diagonalization with overlap

---- Real-time Memory Report at c_bands before calling an iterative solver
            58 MiB given to the printing process from OS
             0 MiB allocation reported by mallinfo(arena+hblkhd)
           882 MiB available memory on the node where the printing process lives
------------------
     ethr =  1.00E-02,  avg # of iterations =  4.9

     Threshold (ethr) on eigenvalues was too large:
     Diagonalizing with lowered threshold

     Davidson diagonalization with overlap

---- Real-time Memory Report at c_bands before calling an iterative solver
            58 MiB given to the printing process from OS
             0 MiB allocation reported by mallinfo(arena+hblkhd)
           878 MiB available memory on the node where the printing process lives
------------------
     ethr =  2.76E-04,  avg # of iterations =  2.6

     total cpu time spent up to now is        1.6 secs

     total energy              =    -352.73760814 Ry
     estimated scf accuracy    <       0.05740728 Ry

     total magnetization       =     4.10 Bohr mag/cell
     absolute magnetization    =     4.10 Bohr mag/cell

     iteration #  2     ecut=    30.00 Ry     beta= 0.70
     Davidson diagonalization with overlap

---- Real-time Memory Report at c_bands before calling an iterative solver
            60 MiB given to the printing process from OS
             0 MiB allocation reported by mallinfo(arena+hblkhd)
           863 MiB available memory on the node where the printing process lives
------------------
     ethr =  2.73E-04,  avg # of iterations =  2.0

     total cpu time spent up to now is        2.1 secs

     total energy              =    -352.75553183 Ry
     estimated scf accuracy    <       0.00726389 Ry

     total magnetization       =     4.40 Bohr mag/cell
     absolute magnetization    =     4.40 Bohr mag/cell

     iteration #  3     ecut=    30.00 Ry     beta= 0.70
     Davidson diagonalization with overlap

---- Real-time Memory Report at c_bands before calling an iterative solver
            60 MiB given to the printing process from OS
             0 MiB allocation reported by mallinfo(arena+hblkhd)
           850 MiB available memory on the node where the printing process lives
------------------
     ethr =  3.46E-05,  avg # of iterations =  2.2

     total cpu time spent up to now is        2.6 secs

     total energy              =    -352.75953340 Ry
     estimated scf accuracy    <       0.00339166 Ry

     total magnetization       =     4.60 Bohr mag/cell
     absolute magnetization    =     4.60 Bohr mag/cell

     iteration #  4     ecut=    30.00 Ry     beta= 0.70
     Davidson diagonalization with overlap

---- Real-time Memory Report at c_bands before calling an iterative solver
            60 MiB given to the printing process from OS
             0 MiB allocation reported by mallinfo(arena+hblkhd)
           836 MiB available memory on the node where the printing process lives
------------------
     ethr =  1.62E-05,  avg # of iterations =  3.0

     total cpu time spent up to now is        3.1 secs

     total energy              =    -352.76010536 Ry
     estimated scf accuracy    <       0.00110464 Ry

     total magnetization       =     4.67 Bohr mag/cell
     absolute magnetization    =     4.67 Bohr mag/cell

     iteration #  5     ecut=    30.00 Ry     beta= 0.70
     Davidson diagonalization with overlap

---- Real-time Memory Report at c_bands before calling an iterative solver
            60 MiB given to the printing process from OS
             0 MiB allocation reported by mallinfo(arena+hblkhd)
           831 MiB available memory on the node where the printing process lives
------------------
     ethr =  5.26E-06,  avg # of iterations =  3.0

     total cpu time spent up to now is        3.5 secs

     total energy              =    -352.76049238 Ry
     estimated scf accuracy    <       0.00075113 Ry

     total magnetization       =     4.70 Bohr mag/cell
     absolute magnetization    =     4.70 Bohr mag/cell

     iteration #  6     ecut=    30.00 Ry     beta= 0.70
     Davidson diagonalization with overlap

---- Real-time Memory Report at c_bands before calling an iterative solver
            60 MiB given to the printing process from OS
             0 MiB allocation reported by mallinfo(arena+hblkhd)
           856 MiB available memory on the node where the printing process lives
------------------
     ethr =  3.58E-06,  avg # of iterations =  1.6

     total cpu time spent up to now is        3.8 secs

     total energy              =    -352.76060851 Ry
     estimated scf accuracy    <       0.00001058 Ry

     total magnetization       =     4.72 Bohr mag/cell
     absolute magnetization    =     4.72 Bohr mag/cell

     iteration #  7     ecut=    30.00 Ry     beta= 0.70
     Davidson diagonalization with overlap

---- Real-time Memory Report at c_bands before calling an iterative solver
            60 MiB given to the printing process from OS
             0 MiB allocation reported by mallinfo(arena+hblkhd)
           853 MiB available memory on the node where the printing process lives
------------------
     ethr =  5.04E-08,  avg # of iterations =  4.1

     total cpu time spent up to now is        4.2 secs

     total energy              =    -352.76061585 Ry
     estimated scf accuracy    <       0.00000288 Ry

     total magnetization       =     4.72 Bohr mag/cell
     absolute magnetization    =     4.72 Bohr mag/cell

     iteration #  8     ecut=    30.00 Ry     beta= 0.70
     Davidson diagonalization with overlap

---- Real-time Memory Report at c_bands before calling an iterative solver
            60 MiB given to the printing process from OS
             0 MiB allocation reported by mallinfo(arena+hblkhd)
           854 MiB available memory on the node where the printing process lives
------------------
     ethr =  1.37E-08,  avg # of iterations =  1.9

     total cpu time spent up to now is        4.5 secs

     total energy              =    -352.76061655 Ry
     estimated scf accuracy    <       0.00000004 Ry

     total magnetization       =     4.72 Bohr mag/cell
     absolute magnetization    =     4.72 Bohr mag/cell

     iteration #  9     ecut=    30.00 Ry     beta= 0.70
     Davidson diagonalization with overlap

---- Real-time Memory Report at c_bands before calling an iterative solver
            61 MiB given to the printing process from OS
             0 MiB allocation reported by mallinfo(arena+hblkhd)
           880 MiB available memory on the node where the printing process lives
------------------
     ethr =  2.14E-10,  avg # of iterations =  4.0

     total cpu time spent up to now is        4.8 secs

     total energy              =    -352.76061656 Ry
     estimated scf accuracy    <          9.1E-09 Ry

     total magnetization       =     4.72 Bohr mag/cell
     absolute magnetization    =     4.72 Bohr mag/cell

     iteration # 10     ecut=    30.00 Ry     beta= 0.70
     Davidson diagonalization with overlap

---- Real-time Memory Report at c_bands before calling an iterative solver
            61 MiB given to the printing process from OS
             0 MiB allocation reported by mallinfo(arena+hblkhd)
           873 MiB available memory on the node where the printing process lives
------------------
     ethr =  4.32E-11,  avg # of iterations =  2.0

     Magnetic moment per site  (integrated on atomic sphere of radius R)
     atom   1 (R=0.253)  charge= 12.8992  magn=  3.9925
     atom   2 (R=0.253)  charge=  4.1418  magn=  0.1014

     total cpu time spent up to now is        5.1 secs

     End of self-consistent calculation

 ------ SPIN UP ------------


          k = 0.0000 0.0000 0.0000 (   821 PWs)   bands (ev):

   -74.4907 -43.2122 -43.2122 -43.2122  -6.2550   2.8582   2.8582   2.8582
     4.6654   4.6654   8.2462   8.2462   8.2462   9.0792  13.6953

     occupation numbers 
     1.0000   1.0000   1.0000   1.0000   1.0000   1.0000   1.0000   1.0000
     1.0000   1.0000   0.0000   0.0000   0.0000   0.0000   0.0000

          k = 0.1414 0.1414-0.1414 (   800 PWs)   bands (ev):

   -74.4903 -43.2131 -43.2120 -43.2120  -6.0266   2.5246   2.9691   2.9691
     4.6961   4.6961   6.7346   7.8986   7.8986  10.3957  13.6336

     occupation numbers 
     1.0000   1.0000   1.0000   1.0000   1.0000   1.0000   1.0000   1.0000
     1.0000   1.0000   1.0000   0.1289   0.1289   0.0000   0.0000

          k = 0.2828 0.2828-0.2828 (   796 PWs)   bands (ev):

   -74.4901 -43.2148 -43.2124 -43.2124  -5.6158   2.0483   3.0784   3.0784
     4.7881   4.7881   5.3193   7.2846   7.2846  11.0089  14.2389

     occupation numbers 
     1.0000   1.0000   1.0000   1.0000   1.0000   1.0000   1.0000   1.0000
     1.0000   1.0000   1.0000   1.0000   1.0000   0.0000   0.0000

          k = 0.2828 0.0000 0.0000 (   801 PWs)   bands (ev):

   -74.4903 -43.2130 -43.2124 -43.2124  -5.9516   2.4170   3.0351   3.0351
     4.5550   4.7809   7.0681   7.3394   7.3394  10.8466  12.7623

     occupation numbers 
     1.0000   1.0000   1.0000   1.0000   1.0000   1.0000   1.0000   1.0000
     1.0000   1.0000   1.0000   1.0000   1.0000   0.0000   0.0000

          k = 0.4243 0.1414-0.1414 (   797 PWs)   bands (ev):

   -74.4901 -43.2144 -43.2129 -43.2127  -5.5971   2.1506   3.0755   3.1805
     4.5968   4.8924   5.6361   6.7236   6.7738  11.6742  13.1883

     occupation numbers 
     1.0000   1.0000   1.0000   1.0000   1.0000   1.0000   1.0000   1.0000
     1.0000   1.0000   1.0000   1.0000   1.0000   0.0000   0.0000

          k =-0.1414-0.4243 0.4243 (   785 PWs)   bands (ev):

   -74.4899 -43.2147 -43.2131 -43.2125  -5.4473   2.2560   2.8704   3.2312
     4.7590   4.7882   5.2326   6.2188   6.9180  12.1222  13.3112

     occupation numbers 
     1.0000   1.0000   1.0000   1.0000   1.0000   1.0000   1.0000   1.0000
     1.0000   1.0000   1.0000   1.0000   1.0000   0.0000   0.0000

          k = 0.0000-0.2828 0.2828 (   797 PWs)   bands (ev):

   -74.4902 -43.2139 -43.2129 -43.2122  -5.7331   2.3229   2.9432   3.0882
     4.6192   4.8534   6.0712   6.4665   7.6204  11.8290  13.6975

     occupation numbers 
     1.0000   1.0000   1.0000   1.0000   1.0000   1.0000   1.0000   1.0000
     1.0000   1.0000   1.0000   1.0000   0.9608   0.0000   0.0000

          k = 0.5657 0.0000 0.0000 (   789 PWs)   bands (ev):

   -74.4900 -43.2147 -43.2131 -43.2131  -5.4081   1.8736   3.4556   3.4556
     4.5174   4.9408   5.6467   6.0519   6.0519  10.8313  12.4690

     occupation numbers 
     1.0000   1.0000   1.0000   1.0000   1.0000   1.0000   1.0000   1.0000
     1.0000   1.0000   1.0000   1.0000   1.0000   0.0000   0.0000

          k = 0.0000-0.5657 0.5657 (   794 PWs)   bands (ev):

   -74.4900 -43.2148 -43.2136 -43.2132  -5.3140   2.0636   3.2630   3.4470
     4.5637   4.8511   5.1035   5.7608   6.1175  11.4013  13.2008

     occupation numbers 
     1.0000   1.0000   1.0000   1.0000   1.0000   1.0000   1.0000   1.0000
     1.0000   1.0000   1.0000   1.0000   1.0000   0.0000   0.0000

          k =-0.1414-0.4243 0.7071 (   794 PWs)   bands (ev):

   -74.4900 -43.2146 -43.2136 -43.2131  -5.3676   2.3109   2.8668   3.4314
     4.6720   4.7620   5.3374   5.5647   6.4318  12.5028  13.6227

     occupation numbers 
     1.0000   1.0000   1.0000   1.0000   1.0000   1.0000   1.0000   1.0000
     1.0000   1.0000   1.0000   1.0000   1.0000   0.0000   0.0000

 ------ SPIN DOWN ----------


          k = 0.0000 0.0000 0.0000 (   821 PWs)   bands (ev):

   -70.0077 -38.7909 -38.7909 -38.7909  -5.9654   4.3588   4.3588   4.3588
     8.6215   8.6215   9.9446  10.9088  10.9088  10.9088  14.7193

     occupation numbers 
     1.0000   1.0000   1.0000   1.0000   1.0000   1.0000   1.0000   1.0000
     0.0000   0.0000   0.0000   0.0000   0.0000   0.0000   0.0000

          k = 0.1414 0.1414-0.1414 (   800 PWs)   bands (ev):

   -70.0073 -38.7924 -38.7908 -38.7908  -5.7500   3.6350   4.4061   4.4061
     8.5930   8.5930   9.8377  10.6666  10.6666  11.2740  14.4910

     occupation numbers 
     1.0000   1.0000   1.0000   1.0000   1.0000   1.0000   1.0000   1.0000
     0.0000   0.0000   0.0000   0.0000   0.0000   0.0000   0.0000

          k = 0.2828 0.2828-0.2828 (   796 PWs)   bands (ev):

   -70.0071 -38.7951 -38.7914 -38.7914  -5.3633   2.6773   4.4525   4.4525
     8.7077   8.7077   8.8611  10.0457  10.0457  12.0829  15.3667

     occupation numbers 
     1.0000   1.0000   1.0000   1.0000   1.0000   1.0000   1.0000   1.0000
     0.0000   0.0000   0.0000   0.0000   0.0000   0.0000   0.0000

          k = 0.2828 0.0000 0.0000 (   801 PWs)   bands (ev):

   -70.0073 -38.7923 -38.7913 -38.7913  -5.6793   3.5856   4.3563   4.3563
     8.2477   8.8033  10.1914  10.1914  10.2967  11.5781  13.9372

     occupation numbers 
     1.0000   1.0000   1.0000   1.0000   1.0000   1.0000   1.0000   1.0000
     0.0000   0.0000   0.0000   0.0000   0.0000   0.0000   0.0000

          k = 0.4243 0.1414-0.1414 (   797 PWs)   bands (ev):

   -70.0071 -38.7943 -38.7920 -38.7918  -5.3458   2.9741   4.2072   4.3889
     8.1465   8.9302   8.9770   9.6887  10.0186  12.7345  14.3398

     occupation numbers 
     1.0000   1.0000   1.0000   1.0000   1.0000   1.0000   1.0000   1.0000
     0.0001   0.0000   0.0000   0.0000   0.0000   0.0000   0.0000

          k =-0.1414-0.4243 0.4243 (   785 PWs)   bands (ev):

   -70.0069 -38.7949 -38.7925 -38.7916  -5.2052   2.8449   3.9102   4.4672
     8.2536   8.6515   8.8816   9.6118   9.9567  13.1914  14.4315

     occupation numbers 
     1.0000   1.0000   1.0000   1.0000   1.0000   1.0000   1.0000   1.0000
     0.0000   0.0000   0.0000   0.0000   0.0000   0.0000   0.0000

          k = 0.0000-0.2828 0.2828 (   797 PWs)   bands (ev):

   -70.0072 -38.7937 -38.7920 -38.7911  -5.4735   3.1944   4.0957   4.4811
     8.4007   8.7863   9.1686   9.7211  10.5332  12.7680  14.5877

     occupation numbers 
     1.0000   1.0000   1.0000   1.0000   1.0000   1.0000   1.0000   1.0000
     0.0000   0.0000   0.0000   0.0000   0.0000   0.0000   0.0000

          k = 0.5657 0.0000 0.0000 (   789 PWs)   bands (ev):

   -70.0070 -38.7949 -38.7923 -38.7923  -5.1688   2.7335   4.3681   4.3681
     7.7154   9.0348   9.0927   9.3175   9.3175  12.2896  13.9627

     occupation numbers 
     1.0000   1.0000   1.0000   1.0000   1.0000   1.0000   1.0000   1.0000
     0.7801   0.0000   0.0000   0.0000   0.0000   0.0000   0.0000

          k = 0.0000-0.5657 0.5657 (   794 PWs)   bands (ev):

   -70.0070 -38.7950 -38.7932 -38.7924  -5.0802   2.8745   3.8666   4.4056
     7.7173   8.6341   8.8150   9.4708   9.4981  12.8682  14.4882

     occupation numbers 
     1.0000   1.0000   1.0000   1.0000   1.0000   1.0000   1.0000   1.0000
     0.7743   0.0000   0.0000   0.0000   0.0000   0.0000   0.0000

          k =-0.1414-0.4243 0.7071 (   794 PWs)   bands (ev):

   -70.0070 -38.7947 -38.7931 -38.7923  -5.1303   3.0734   3.7108   4.3318
     7.8924   8.4124   9.0297   9.3510   9.8855  13.6811  14.9304

     occupation numbers 
     1.0000   1.0000   1.0000   1.0000   1.0000   1.0000   1.0000   1.0000
     0.1430   0.0000   0.0000   0.0000   0.0000   0.0000   0.0000

     the Fermi energy is     7.7897 ev

!    total energy              =    -352.76061656 Ry
     total all-electron energy =     -3115.619020 Ry
     estimated scf accuracy    <          2.0E-11 Ry
     smearing contrib. (-TS)   =      -0.00085949 Ry
     internal energy E=F+TS    =    -352.75975707 Ry

     The total energy is F=E-TS. E is the sum of the following terms:
     one-electron contribution =    -152.20644569 Ry
     hartree contribution      =      84.56968141 Ry
     xc contribution           =     -33.10231084 Ry
     ewald contribution        =    -128.25534586 Ry
     one-center paw contrib.   =    -123.76533610 Ry
      -> PAW hartree energy AE =     174.85963651 Ry
      -> PAW hartree energy PS =    -175.82892157 Ry
      -> PAW xc energy AE      =    -104.50677474 Ry
      -> PAW xc energy PS      =      27.84736149 Ry
      -> total E_H with PAW    =      83.60039635 Ry
      -> total E_XC with PAW   =    -109.76172409 Ry

     total magnetization       =     4.72 Bohr mag/cell
     absolute magnetization    =     4.72 Bohr mag/cell

     convergence has been achieved in  10 iterations

     Forces acting on atoms (cartesian axes, Ry/au):

     atom    1 type  1   force =     0.00000000   -0.00000000   -0.00000000
     atom    2 type  2   force =    -0.00000000    0.00000000    0.00000000
     The non-local contrib.  to forces
     atom    1 type  1   force =    -0.00000000   -0.00000000   -0.00000000
     atom    2 type  2   force =     0.00000000    0.00000000   -0.00000000
     The ionic contribution  to forces
     atom    1 type  1   force =    -0.00000000   -0.00000000   -0.00000000
     atom    2 type  2   force =     0.00000000    0.00000000    0.00000000
     The local contribution  to forces
     atom    1 type  1   force =     0.00000000    0.00000000    0.00000000
     atom    2 type  2   force =     0.00000000   -0.00000000   -0.00000000
     The core correction contribution to forces
     atom    1 type  1   force =     0.00000000    0.00000000    0.00000000
     atom    2 type  2   force =    -0.00000000   -0.00000000   -0.00000000
     The Hubbard contrib.    to forces
     atom    1 type  1   force =     0.00000000    0.00000000    0.00000000
     atom    2 type  2   force =     0.00000000    0.00000000    0.00000000
     The SCF correction term to forces
     atom    1 type  1   force =     0.00000000    0.00000000   -0.00000000
     atom    2 type  2   force =    -0.00000000   -0.00000000    0.00000000

     Total force =     0.000000     Total SCF correction =     0.000000

     BFGS Geometry Optimization
     Energy error            =      0.0E+00 Ry
     Gradient error          =      3.7E-30 Ry/Bohr

     bfgs converged in   1 scf cycles and   0 bfgs steps
     (criteria: energy <  1.0E-05 Ry, force <  1.0E-04 Ry/Bohr)

     End of BFGS Geometry Optimization

     Final energy             =    -352.7606165637 Ry
Begin final coordinates

ATOMIC_POSITIONS (crystal)
Mn               0.7500000000        0.7500000000        0.7500000000
S                0.0000000000        0.0000000000        0.0000000000
End final coordinates



     Writing all to output data dir ./temp/mns.save/ :
     XML data file, charge density, pseudopotentials, collected wavefunctions

     init_run     :      0.54s CPU      0.58s WALL (       1 calls)
     electrons    :      3.92s CPU      4.24s WALL (       1 calls)
     forces       :      0.05s CPU      0.05s WALL (       1 calls)

     Called by init_run:
     wfcinit      :      0.05s CPU      0.05s WALL (       1 calls)
     wfcinit:atom :      0.00s CPU      0.00s WALL (      20 calls)
     wfcinit:wfcr :      0.04s CPU      0.05s WALL (      20 calls)
     potinit      :      0.24s CPU      0.27s WALL (       1 calls)
     hinit0       :      0.22s CPU      0.23s WALL (       1 calls)

     Called by electrons:
     c_bands      :      1.45s CPU      1.50s WALL (      11 calls)
     sum_band     :      0.54s CPU      0.55s WALL (      11 calls)
     v_of_rho     :      0.06s CPU      0.06s WALL (      11 calls)
     v_h          :      0.00s CPU      0.00s WALL (      11 calls)
     v_xc         :      0.06s CPU      0.06s WALL (      12 calls)
     newd         :      0.23s CPU      0.23s WALL (      11 calls)
     PAW_pot      :      1.83s CPU      2.11s WALL (      11 calls)
     mix_rho      :      0.01s CPU      0.01s WALL (      11 calls)

     Called by c_bands:
     init_us_2    :      0.03s CPU      0.03s WALL (     480 calls)
     cegterg      :      1.39s CPU      1.44s WALL (     220 calls)

     Called by sum_band:
     sum_band:wei :      0.00s CPU      0.00s WALL (      11 calls)
     sum_band:loo :      0.16s CPU      0.16s WALL (      11 calls)
     sum_band:buf :      0.00s CPU      0.00s WALL (     220 calls)
     sum_band:ini :      0.01s CPU      0.01s WALL (     220 calls)
     sum_band:cal :      0.04s CPU      0.04s WALL (     220 calls)
     sum_band:bec :      0.00s CPU      0.00s WALL (     220 calls)
     addusdens    :      0.37s CPU      0.37s WALL (      11 calls)
                                        0.00s GPU  (      11 calls)
     addusd:skk   :      0.00s CPU      0.00s WALL (      22 calls)
                                        0.00s GPU  (      22 calls)

     Called by *egterg:
     cdiaghg      :      0.22s CPU      0.22s WALL (     826 calls)
     cegterg:over :      0.11s CPU      0.12s WALL (     626 calls)
     cegterg:upda :      0.05s CPU      0.05s WALL (     626 calls)
     cegterg:last :      0.11s CPU      0.11s WALL (     442 calls)
     h_psi        :      0.76s CPU      0.80s WALL (     866 calls)
     s_psi        :      0.10s CPU      0.11s WALL (     866 calls)
     g_psi        :      0.00s CPU      0.00s WALL (     626 calls)

     Called by h_psi:
     h_psi:calbec :      0.11s CPU      0.12s WALL (     866 calls)
     vloc_psi     :      0.54s CPU      0.57s WALL (     866 calls)
     add_vuspsi   :      0.10s CPU      0.11s WALL (     866 calls)

     General routines
     calbec       :      0.16s CPU      0.17s WALL (    1166 calls)
     fft          :      0.13s CPU      0.13s WALL (     290 calls)
     ffts         :      0.04s CPU      0.04s WALL (      44 calls)
     fftw         :      0.55s CPU      0.58s WALL (   20422 calls)
     interpolate  :      0.04s CPU      0.04s WALL (      22 calls)

     Parallel routines

     PAW routines
     PAW_pot      :      1.83s CPU      2.11s WALL (      11 calls)
     PAW_symme    :      0.01s CPU      0.01s WALL (      22 calls)

     PWSCF        :      4.84s CPU      5.24s WALL


   This run was terminated on:  12:45: 8  12Jan2025            

=------------------------------------------------------------------------------=
   JOB DONE.
=------------------------------------------------------------------------------=
