
     Program PWSCF v.7.3.1 starts on 20Jan2025 at  6:52:12 

     This program is part of the open-source Quantum ESPRESSO suite
     for quantum simulation of materials; please cite
         "P. Giannozzi et al., J. Phys.:Condens. Matter 21 395502 (2009);
         "P. Giannozzi et al., J. Phys.:Condens. Matter 29 465901 (2017);
         "P. Giannozzi et al., J. Chem. Phys. 152 154105 (2020);
          URL http://www.quantum-espresso.org", 
     in publications or presentations arising from this work. More details at
     http://www.quantum-espresso.org/quote

     Parallel version (MPI), running on     3 processors

     MPI processes distributed on     1 nodes
     1490 MiB available memory on the printing compute node when the environment starts

     Reading input from relax.in

     Current dimensions of program PWSCF are:
     Max number of different atomic species (ntypx) = 10
     Max number of k-points (npk) =  40000
     Max angular momentum in pseudopotentials (lmaxx) =  4
     file Mn.pbe-spn-kjpaw_psl.0.3.1.UPF: wavefunction(s)  3P 3D renormalized
     file Mn.pbe-spn-kjpaw_psl.0.3.1.UPF: wavefunction(s)  3P 3D renormalized
     file Mn.pbe-spn-kjpaw_psl.0.3.1.UPF: wavefunction(s)  3P 3D renormalized
     file Mn.pbe-spn-kjpaw_psl.0.3.1.UPF: wavefunction(s)  3P 3D renormalized
     file S.pbe-n-kjpaw_psl.1.0.0.UPF: wavefunction(s)  3S 3P renormalized

     R & G space division:  proc/nbgrp/npool/nimage =       3
     Subspace diagonalization in iterative solution of the eigenvalue problem:
     a serial algorithm will be used


     Parallelization info
     --------------------
     sticks:   dense  smooth     PW     G-vecs:    dense   smooth      PW
     Min         747     600    185                11801     8454    1412
     Max         749     601    185                11802     8456    1413
     Sum        2245    1801    555                35405    25365    4237

     Using Slab Decomposition



     bravais-lattice index     =            0
     lattice parameter (alat)  =      14.7866  a.u.
     unit-cell volume          =    1143.0296 (a.u.)^3
     number of atoms/cell      =            8
     number of atomic types    =            5
     number of electrons       =        84.00
     number of Kohn-Sham states=           50
     kinetic-energy cutoff     =      30.0000  Ry
     charge density cutoff     =     150.0000  Ry
     scf convergence threshold =      1.0E-10
     mixing beta               =       0.7000
     number of iterations used =            8  plain     mixing
     energy convergence thresh.=      1.0E-05
     force convergence thresh. =      1.0E-04
     Exchange-correlation= SLA  PW   PBX  PBC
                           (   1   4   3   4   0   0   0)
     nstep                     =           50


     celldm(1)=  14.786571  celldm(2)=   0.000000  celldm(3)=   0.000000
     celldm(4)=   0.000000  celldm(5)=   0.000000  celldm(6)=   0.000000

     crystal axes: (cart. coord. in units of alat)
               a(1) = (   1.000000   0.000000   0.000000 )  
               a(2) = (   0.500000   0.866025   0.000000 )  
               a(3) = (   0.250000   0.144338   0.408248 )  

     reciprocal axes: (cart. coord. in units 2 pi/alat)
               b(1) = (  1.000000 -0.577350 -0.408248 )  
               b(2) = (  0.000000  1.154700 -0.408248 )  
               b(3) = (  0.000000  0.000000  2.449490 )  


     PseudoPot. # 1 for Mn read from file:
     ./../../../pseudos/Mn.pbe-spn-kjpaw_psl.0.3.1.UPF
     MD5 check sum: ba19e6d7ccbc12830efad05ba8577d9c
     Pseudo is Projector augmented-wave + core cor, Zval = 15.0
     Generated using &quot;atomic&quot; code by A. Dal Corso  v.6.2.2
     Shape of augmentation charge: PSQ
     Using radial grid of 1187 points,  6 beta functions with: 
                l(1) =   0
                l(2) =   0
                l(3) =   1
                l(4) =   1
                l(5) =   2
                l(6) =   2
     Q(r) pseudized with 0 coefficients 


     PseudoPot. # 2 for Mn read from file:
     ./../../../pseudos/Mn.pbe-spn-kjpaw_psl.0.3.1.UPF
     MD5 check sum: ba19e6d7ccbc12830efad05ba8577d9c
     Pseudo is Projector augmented-wave + core cor, Zval = 15.0
     Generated using &quot;atomic&quot; code by A. Dal Corso  v.6.2.2
     Shape of augmentation charge: PSQ
     Using radial grid of 1187 points,  6 beta functions with: 
                l(1) =   0
                l(2) =   0
                l(3) =   1
                l(4) =   1
                l(5) =   2
                l(6) =   2
     Q(r) pseudized with 0 coefficients 


     PseudoPot. # 3 for Mn read from file:
     ./../../../pseudos/Mn.pbe-spn-kjpaw_psl.0.3.1.UPF
     MD5 check sum: ba19e6d7ccbc12830efad05ba8577d9c
     Pseudo is Projector augmented-wave + core cor, Zval = 15.0
     Generated using &quot;atomic&quot; code by A. Dal Corso  v.6.2.2
     Shape of augmentation charge: PSQ
     Using radial grid of 1187 points,  6 beta functions with: 
                l(1) =   0
                l(2) =   0
                l(3) =   1
                l(4) =   1
                l(5) =   2
                l(6) =   2
     Q(r) pseudized with 0 coefficients 


     PseudoPot. # 4 for Mn read from file:
     ./../../../pseudos/Mn.pbe-spn-kjpaw_psl.0.3.1.UPF
     MD5 check sum: ba19e6d7ccbc12830efad05ba8577d9c
     Pseudo is Projector augmented-wave + core cor, Zval = 15.0
     Generated using &quot;atomic&quot; code by A. Dal Corso  v.6.2.2
     Shape of augmentation charge: PSQ
     Using radial grid of 1187 points,  6 beta functions with: 
                l(1) =   0
                l(2) =   0
                l(3) =   1
                l(4) =   1
                l(5) =   2
                l(6) =   2
     Q(r) pseudized with 0 coefficients 


     PseudoPot. # 5 for S  read from file:
     ./../../../pseudos/S.pbe-n-kjpaw_psl.1.0.0.UPF
     MD5 check sum: fb45dfebcf3e72a4e1bd4a866ec2e262
     Pseudo is Projector augmented-wave + core cor, Zval =  6.0
     Generated using &quot;atomic&quot; code by A. Dal Corso  v.6.3
     Shape of augmentation charge: PSQ
     Using radial grid of 1151 points,  6 beta functions with: 
                l(1) =   0
                l(2) =   0
                l(3) =   1
                l(4) =   1
                l(5) =   2
                l(6) =   2
     Q(r) pseudized with 0 coefficients 


     atomic species   valence    mass     pseudopotential
     Mn1              15.00    54.93800     Mn( 1.00)
     Mn2              15.00    54.93800     Mn( 1.00)
     Mn3              15.00    54.93800     Mn( 1.00)
     Mn4              15.00    54.93800     Mn( 1.00)
     S                 6.00    32.06500     S ( 1.00)

     Starting magnetic structure 
     atomic species   magnetization
     Mn1             0.200
     Mn2             0.200
     Mn3            -0.200
     Mn4            -0.200
     S               0.000

     No symmetry found


                                    s                        frac. trans.

      isym =  1     identity                                     

 cryst.   s( 1) = (     1          0          0      )
                  (     0          1          0      )
                  (     0          0          1      )

 cart.    s( 1) = (  1.0000000  0.0000000  0.0000000 )
                  (  0.0000000  1.0000000  0.0000000 )
                  (  0.0000000  0.0000000  1.0000000 )


   Cartesian axes

     site n.     atom                  positions (alat units)
         1        Mn1    tau(   1) = (   0.7500000   0.4330127   0.3061862  )
         2        Mn2    tau(   2) = (   0.9999999   0.8660254   0.3061862  )
         3        Mn3    tau(   3) = (   1.2500000   0.4330127   0.3061862  )
         4        Mn4    tau(   4) = (   1.4999999   0.8660254   0.3061862  )
         5        S      tau(   5) = (   0.0000000   0.0000000   0.0000000  )
         6        S      tau(   6) = (   0.2500000   0.4330127   0.0000000  )
         7        S      tau(   7) = (   0.5000000   0.0000000   0.0000000  )
         8        S      tau(   8) = (   0.7500000   0.4330127   0.0000000  )

   Crystallographic axes

     site n.     atom                  positions (cryst. coord.)
         1        Mn1    tau(   1) = (  0.3750000  0.3750000  0.7500000  )
         2        Mn2    tau(   2) = (  0.3750000  0.8750000  0.7500000  )
         3        Mn3    tau(   3) = (  0.8750000  0.3750000  0.7500000  )
         4        Mn4    tau(   4) = (  0.8750000  0.8750000  0.7500000  )
         5        S      tau(   5) = (  0.0000000  0.0000000  0.0000000  )
         6        S      tau(   6) = (  0.0000000  0.5000000  0.0000000  )
         7        S      tau(   7) = (  0.5000000  0.0000000  0.0000000  )
         8        S      tau(   8) = (  0.5000000  0.5000000  0.0000000  )

     number of k points=    23  Gaussian smearing, width (Ry)=  0.0100
                       cart. coord. in units 2pi/alat
        k(    1) = (   0.0000000   0.0000000   0.0000000), wk =   0.0222222
        k(    2) = (   0.0000000   0.0000000   0.4898979), wk =   0.0444444
        k(    3) = (   0.0000000   0.0000000   0.9797958), wk =   0.0444444
        k(    4) = (   0.0000000   0.3849002  -0.1360827), wk =   0.0444444
        k(    5) = (   0.0000000   0.3849002   0.3538152), wk =   0.0444444
        k(    6) = (   0.0000000   0.3849002   0.8437131), wk =   0.0444444
        k(    7) = (   0.0000000   0.3849002  -1.1158786), wk =   0.0444444
        k(    8) = (   0.0000000   0.3849002  -0.6259807), wk =   0.0444444
        k(    9) = (   0.3333333   0.1924501  -0.2721655), wk =   0.0444444
        k(   10) = (   0.3333333   0.1924501   0.2177324), wk =   0.0444444
        k(   11) = (   0.3333333   0.1924501   0.7076304), wk =   0.0444444
        k(   12) = (   0.3333333   0.1924501  -1.2519613), wk =   0.0444444
        k(   13) = (   0.3333333   0.1924501  -0.7620634), wk =   0.0444444
        k(   14) = (   0.3333333  -0.5773502   0.0000000), wk =   0.0444444
        k(   15) = (   0.3333333  -0.5773502   0.4898979), wk =   0.0444444
        k(   16) = (   0.3333333  -0.5773502   0.9797959), wk =   0.0444444
        k(   17) = (  -0.3333333   0.1924501   0.1360827), wk =   0.0444444
        k(   18) = (  -0.3333333   0.1924501  -0.3538152), wk =   0.0444444
        k(   19) = (  -0.3333333   0.1924501  -0.8437131), wk =   0.0444444
        k(   20) = (  -0.3333333   0.1924501   1.1158786), wk =   0.0444444
        k(   21) = (  -0.3333333   0.1924501   0.6259807), wk =   0.0444444
        k(   22) = (   0.3333333  -0.5773502  -0.4898979), wk =   0.0444444
        k(   23) = (   0.3333333  -0.5773502  -0.9797958), wk =   0.0444444

                       cryst. coord.
        k(    1) = (   0.0000000   0.0000000   0.0000000), wk =   0.0222222
        k(    2) = (   0.0000000   0.0000000   0.2000000), wk =   0.0444444
        k(    3) = (   0.0000000   0.0000000   0.4000000), wk =   0.0444444
        k(    4) = (   0.0000000   0.3333333   0.0000000), wk =   0.0444444
        k(    5) = (   0.0000000   0.3333333   0.2000000), wk =   0.0444444
        k(    6) = (   0.0000000   0.3333333   0.4000000), wk =   0.0444444
        k(    7) = (   0.0000000   0.3333333  -0.4000000), wk =   0.0444444
        k(    8) = (   0.0000000   0.3333333  -0.2000000), wk =   0.0444444
        k(    9) = (   0.3333333   0.3333333   0.0000000), wk =   0.0444444
        k(   10) = (   0.3333333   0.3333333   0.2000000), wk =   0.0444444
        k(   11) = (   0.3333333   0.3333333   0.4000000), wk =   0.0444444
        k(   12) = (   0.3333333   0.3333333  -0.4000000), wk =   0.0444444
        k(   13) = (   0.3333333   0.3333333  -0.2000000), wk =   0.0444444
        k(   14) = (   0.3333333  -0.3333333   0.0000000), wk =   0.0444444
        k(   15) = (   0.3333333  -0.3333333   0.2000000), wk =   0.0444444
        k(   16) = (   0.3333333  -0.3333333   0.4000000), wk =   0.0444444
        k(   17) = (  -0.3333333   0.0000000  -0.0000000), wk =   0.0444444
        k(   18) = (  -0.3333333   0.0000000  -0.2000000), wk =   0.0444444
        k(   19) = (  -0.3333333   0.0000000  -0.4000000), wk =   0.0444444
        k(   20) = (  -0.3333333   0.0000000   0.4000000), wk =   0.0444444
        k(   21) = (  -0.3333333   0.0000000   0.2000000), wk =   0.0444444
        k(   22) = (   0.3333333  -0.3333333  -0.2000000), wk =   0.0444444
        k(   23) = (   0.3333333  -0.3333333  -0.4000000), wk =   0.0444444

     Dense  grid:    35405 G-vectors     FFT dimensions: (  60,  60,  30)

     Smooth grid:    25365 G-vectors     FFT dimensions: (  54,  54,  25)

     Dynamical RAM for                 wfc:       0.81 MB

     Dynamical RAM for     wfc (w. buffer):      37.90 MB

     Dynamical RAM for           str. fact:       0.90 MB

     Dynamical RAM for           local pot:       0.00 MB

     Dynamical RAM for          nlocal pot:       2.32 MB

     Dynamical RAM for                qrad:       4.92 MB

     Dynamical RAM for          rho,v,vnew:       2.73 MB

     Dynamical RAM for               rhoin:       0.91 MB

     Dynamical RAM for            rho*nmix:       5.76 MB

     Dynamical RAM for           G-vectors:       0.74 MB

     Dynamical RAM for          h,s,v(r/c):       0.46 MB

     Dynamical RAM for          <psi|beta>:       0.11 MB

     Dynamical RAM for                 psi:       1.61 MB

     Dynamical RAM for                hpsi:       1.61 MB

     Dynamical RAM for                spsi:       1.61 MB

     Dynamical RAM for      wfcinit/wfcrot:       1.88 MB

     Dynamical RAM for           addusdens:      34.40 MB

     Dynamical RAM for          addusforce:      35.51 MB

     Estimated static dynamical RAM per process >      53.15 MB

     Estimated max dynamical RAM per process >      94.42 MB

     Estimated total dynamical RAM >     283.26 MB

     Check: negative core charge=   -0.000237
     Generating pointlists ...
     new r_m :   0.1263 (alat units)  1.8676 (a.u.) for type    1
     new r_m :   0.1263 (alat units)  1.8676 (a.u.) for type    2
     new r_m :   0.1263 (alat units)  1.8676 (a.u.) for type    3
     new r_m :   0.1263 (alat units)  1.8676 (a.u.) for type    4
     new r_m :   0.1263 (alat units)  1.8676 (a.u.) for type    5

     Initial potential from superposition of free atoms

     starting charge      83.9979, renormalised to      84.0000
     Starting wfcs are   56 randomized atomic wfcs
     Checking if some PAW data can be deallocated... 
       PAW data deallocated on    2 nodes for type:  1
       PAW data deallocated on    2 nodes for type:  2
       PAW data deallocated on    2 nodes for type:  3
       PAW data deallocated on    2 nodes for type:  4
       PAW data deallocated on    1 nodes for type:  5

     total cpu time spent up to now is        8.0 secs

     Self-consistent Calculation

     iteration #  1     ecut=    30.00 Ry     beta= 0.70
     Davidson diagonalization with overlap

---- Real-time Memory Report at c_bands before calling an iterative solver
            92 MiB given to the printing process from OS
             0 MiB allocation reported by mallinfo(arena+hblkhd)
          1280 MiB available memory on the node where the printing process lives
------------------
     ethr =  1.00E-02,  avg # of iterations =  2.0

     Threshold (ethr) on eigenvalues was too large:
     Diagonalizing with lowered threshold

     Davidson diagonalization with overlap

---- Real-time Memory Report at c_bands before calling an iterative solver
           125 MiB given to the printing process from OS
             0 MiB allocation reported by mallinfo(arena+hblkhd)
          1111 MiB available memory on the node where the printing process lives
------------------
     ethr =  3.65E-04,  avg # of iterations =  4.0

     total cpu time spent up to now is       46.3 secs

     total energy              =   -1411.02132492 Ry
     estimated scf accuracy    <       0.26606079 Ry

     total magnetization       =    -0.00 Bohr mag/cell
     absolute magnetization    =    16.33 Bohr mag/cell

     iteration #  2     ecut=    30.00 Ry     beta= 0.70
     Davidson diagonalization with overlap

---- Real-time Memory Report at c_bands before calling an iterative solver
           127 MiB given to the printing process from OS
             0 MiB allocation reported by mallinfo(arena+hblkhd)
          1143 MiB available memory on the node where the printing process lives
------------------
     ethr =  3.17E-04,  avg # of iterations =  2.1

     total cpu time spent up to now is       65.6 secs

     total energy              =   -1411.09321286 Ry
     estimated scf accuracy    <       0.03046113 Ry

     total magnetization       =     0.00 Bohr mag/cell
     absolute magnetization    =    17.25 Bohr mag/cell

     iteration #  3     ecut=    30.00 Ry     beta= 0.70
     Davidson diagonalization with overlap

---- Real-time Memory Report at c_bands before calling an iterative solver
           128 MiB given to the printing process from OS
             0 MiB allocation reported by mallinfo(arena+hblkhd)
          1160 MiB available memory on the node where the printing process lives
------------------
     ethr =  3.63E-05,  avg # of iterations =  6.0

     total cpu time spent up to now is       89.7 secs

     total energy              =   -1411.09610773 Ry
     estimated scf accuracy    <       0.03722585 Ry

     total magnetization       =    -0.00 Bohr mag/cell
     absolute magnetization    =    17.71 Bohr mag/cell

     iteration #  4     ecut=    30.00 Ry     beta= 0.70
     Davidson diagonalization with overlap

---- Real-time Memory Report at c_bands before calling an iterative solver
           128 MiB given to the printing process from OS
             0 MiB allocation reported by mallinfo(arena+hblkhd)
          1144 MiB available memory on the node where the printing process lives
------------------
     ethr =  3.63E-05,  avg # of iterations =  7.2

     total cpu time spent up to now is      114.3 secs

     total energy              =   -1411.10008871 Ry
     estimated scf accuracy    <       0.09218334 Ry

     total magnetization       =     0.00 Bohr mag/cell
     absolute magnetization    =    17.78 Bohr mag/cell

     iteration #  5     ecut=    30.00 Ry     beta= 0.70
     Davidson diagonalization with overlap

---- Real-time Memory Report at c_bands before calling an iterative solver
           129 MiB given to the printing process from OS
             0 MiB allocation reported by mallinfo(arena+hblkhd)
          1551 MiB available memory on the node where the printing process lives
------------------
     ethr =  3.63E-05,  avg # of iterations =  3.9

     total cpu time spent up to now is      133.9 secs

     total energy              =   -1411.11045168 Ry
     estimated scf accuracy    <       0.00945161 Ry

     total magnetization       =    -0.00 Bohr mag/cell
     absolute magnetization    =    18.02 Bohr mag/cell

     iteration #  6     ecut=    30.00 Ry     beta= 0.70
     Davidson diagonalization with overlap

---- Real-time Memory Report at c_bands before calling an iterative solver
           129 MiB given to the printing process from OS
             0 MiB allocation reported by mallinfo(arena+hblkhd)
          1605 MiB available memory on the node where the printing process lives
------------------
     ethr =  1.13E-05,  avg # of iterations =  5.2

     total cpu time spent up to now is      153.3 secs

     total energy              =   -1411.11214668 Ry
     estimated scf accuracy    <       0.00313357 Ry

     total magnetization       =     0.00 Bohr mag/cell
     absolute magnetization    =    18.03 Bohr mag/cell

     iteration #  7     ecut=    30.00 Ry     beta= 0.70
     Davidson diagonalization with overlap

---- Real-time Memory Report at c_bands before calling an iterative solver
           130 MiB given to the printing process from OS
             0 MiB allocation reported by mallinfo(arena+hblkhd)
          1602 MiB available memory on the node where the printing process lives
------------------
     ethr =  3.73E-06,  avg # of iterations =  6.7

     total cpu time spent up to now is      173.7 secs

     total energy              =   -1411.11259218 Ry
     estimated scf accuracy    <       0.00267196 Ry

     total magnetization       =    -0.00 Bohr mag/cell
     absolute magnetization    =    18.04 Bohr mag/cell

     iteration #  8     ecut=    30.00 Ry     beta= 0.70
     Davidson diagonalization with overlap

---- Real-time Memory Report at c_bands before calling an iterative solver
           131 MiB given to the printing process from OS
             0 MiB allocation reported by mallinfo(arena+hblkhd)
          1597 MiB available memory on the node where the printing process lives
------------------
     ethr =  3.18E-06,  avg # of iterations =  2.7

     total cpu time spent up to now is      189.5 secs

     total energy              =   -1411.11287799 Ry
     estimated scf accuracy    <       0.00032297 Ry

     total magnetization       =    -0.00 Bohr mag/cell
     absolute magnetization    =    18.07 Bohr mag/cell

     iteration #  9     ecut=    30.00 Ry     beta= 0.70
     Davidson diagonalization with overlap

---- Real-time Memory Report at c_bands before calling an iterative solver
           131 MiB given to the printing process from OS
             0 MiB allocation reported by mallinfo(arena+hblkhd)
          1595 MiB available memory on the node where the printing process lives
------------------
     ethr =  3.84E-07,  avg # of iterations =  4.1

     total cpu time spent up to now is      206.4 secs

     total energy              =   -1411.11293333 Ry
     estimated scf accuracy    <       0.00003033 Ry

     total magnetization       =    -0.00 Bohr mag/cell
     absolute magnetization    =    18.07 Bohr mag/cell

     iteration # 10     ecut=    30.00 Ry     beta= 0.70
     Davidson diagonalization with overlap

---- Real-time Memory Report at c_bands before calling an iterative solver
           132 MiB given to the printing process from OS
             0 MiB allocation reported by mallinfo(arena+hblkhd)
          1594 MiB available memory on the node where the printing process lives
------------------
     ethr =  3.61E-08,  avg # of iterations =  4.9

     total cpu time spent up to now is      224.8 secs

     total energy              =   -1411.11294027 Ry
     estimated scf accuracy    <       0.00000499 Ry

     total magnetization       =    -0.00 Bohr mag/cell
     absolute magnetization    =    18.08 Bohr mag/cell

     iteration # 11     ecut=    30.00 Ry     beta= 0.70
     Davidson diagonalization with overlap

---- Real-time Memory Report at c_bands before calling an iterative solver
           132 MiB given to the printing process from OS
             0 MiB allocation reported by mallinfo(arena+hblkhd)
          1594 MiB available memory on the node where the printing process lives
------------------
     ethr =  5.94E-09,  avg # of iterations =  3.7

     total cpu time spent up to now is      243.3 secs

     total energy              =   -1411.11294122 Ry
     estimated scf accuracy    <       0.00000096 Ry

     total magnetization       =     0.00 Bohr mag/cell
     absolute magnetization    =    18.08 Bohr mag/cell

     iteration # 12     ecut=    30.00 Ry     beta= 0.70
     Davidson diagonalization with overlap

---- Real-time Memory Report at c_bands before calling an iterative solver
           132 MiB given to the printing process from OS
             0 MiB allocation reported by mallinfo(arena+hblkhd)
          1596 MiB available memory on the node where the printing process lives
------------------
     ethr =  1.14E-09,  avg # of iterations =  3.8

     total cpu time spent up to now is      261.7 secs

     total energy              =   -1411.11294145 Ry
     estimated scf accuracy    <       0.00000007 Ry

     total magnetization       =     0.00 Bohr mag/cell
     absolute magnetization    =    18.08 Bohr mag/cell

     iteration # 13     ecut=    30.00 Ry     beta= 0.70
     Davidson diagonalization with overlap

---- Real-time Memory Report at c_bands before calling an iterative solver
           132 MiB given to the printing process from OS
             0 MiB allocation reported by mallinfo(arena+hblkhd)
          1603 MiB available memory on the node where the printing process lives
------------------
     ethr =  8.48E-11,  avg # of iterations =  4.8

     total cpu time spent up to now is      284.3 secs

     total energy              =   -1411.11294148 Ry
     estimated scf accuracy    <       0.00000004 Ry

     total magnetization       =     0.00 Bohr mag/cell
     absolute magnetization    =    18.08 Bohr mag/cell

     iteration # 14     ecut=    30.00 Ry     beta= 0.70
     Davidson diagonalization with overlap

---- Real-time Memory Report at c_bands before calling an iterative solver
           132 MiB given to the printing process from OS
             0 MiB allocation reported by mallinfo(arena+hblkhd)
          1603 MiB available memory on the node where the printing process lives
------------------
     ethr =  4.37E-11,  avg # of iterations =  2.5

     total cpu time spent up to now is      300.8 secs

     total energy              =   -1411.11294149 Ry
     estimated scf accuracy    <          5.6E-09 Ry

     total magnetization       =    -0.00 Bohr mag/cell
     absolute magnetization    =    18.08 Bohr mag/cell

     iteration # 15     ecut=    30.00 Ry     beta= 0.70
     Davidson diagonalization with overlap

---- Real-time Memory Report at c_bands before calling an iterative solver
           132 MiB given to the printing process from OS
             0 MiB allocation reported by mallinfo(arena+hblkhd)
          1599 MiB available memory on the node where the printing process lives
------------------
     ethr =  6.65E-12,  avg # of iterations =  3.6

     total cpu time spent up to now is      318.8 secs

     total energy              =   -1411.11294149 Ry
     estimated scf accuracy    <          1.4E-09 Ry

     total magnetization       =    -0.00 Bohr mag/cell
     absolute magnetization    =    18.08 Bohr mag/cell

     iteration # 16     ecut=    30.00 Ry     beta= 0.70
     Davidson diagonalization with overlap

---- Real-time Memory Report at c_bands before calling an iterative solver
           132 MiB given to the printing process from OS
             0 MiB allocation reported by mallinfo(arena+hblkhd)
          1599 MiB available memory on the node where the printing process lives
------------------
     ethr =  1.63E-12,  avg # of iterations =  2.7

     total cpu time spent up to now is      334.8 secs

     total energy              =   -1411.11294149 Ry
     estimated scf accuracy    <          1.6E-10 Ry

     total magnetization       =    -0.00 Bohr mag/cell
     absolute magnetization    =    18.08 Bohr mag/cell

     iteration # 17     ecut=    30.00 Ry     beta= 0.70
     Davidson diagonalization with overlap

---- Real-time Memory Report at c_bands before calling an iterative solver
           132 MiB given to the printing process from OS
             0 MiB allocation reported by mallinfo(arena+hblkhd)
          1599 MiB available memory on the node where the printing process lives
------------------
     ethr =  1.96E-13,  avg # of iterations =  4.8

     Magnetic moment per site  (integrated on atomic sphere of radius R)
     atom   1 (R=0.126)  charge= 12.9059  magn=  3.9277
     atom   2 (R=0.126)  charge= 12.9059  magn=  3.9277
     atom   3 (R=0.126)  charge= 12.9059  magn= -3.9277
     atom   4 (R=0.126)  charge= 12.9059  magn= -3.9277
     atom   5 (R=0.126)  charge=  4.1390  magn= -0.0609
     atom   6 (R=0.126)  charge=  4.1390  magn= -0.0609
     atom   7 (R=0.126)  charge=  4.1390  magn=  0.0609
     atom   8 (R=0.126)  charge=  4.1390  magn=  0.0609

     total cpu time spent up to now is      355.7 secs

     End of self-consistent calculation

 ------ SPIN UP ------------


          k = 0.0000 0.0000 0.0000 (  3203 PWs)   bands (ev):

   -74.4253 -74.4249 -70.0013 -70.0010 -43.1666 -43.1646 -43.1643 -43.1641
   -43.1151 -43.1146 -38.8014 -38.8008 -38.7830 -38.7800 -38.7793 -38.7792
    -6.1222  -5.4354  -5.4088  -5.1757   2.0333   2.2427   2.3658   3.0483
     3.0485   3.3839   3.4169   3.5632   3.9850   4.1361   4.1363   4.2172
     5.0758   5.0837   5.0842   5.0854   5.3387   6.2026   6.4961   6.5486
     7.5043   7.5046   8.3922   8.7576   8.7758   8.7760   8.9282   9.3060
     9.4367   9.6011

     occupation numbers 
     1.0000   1.0000   1.0000   1.0000   1.0000   1.0000   1.0000   1.0000
     1.0000   1.0000   1.0000   1.0000   1.0000   1.0000   1.0000   1.0000
     1.0000   1.0000   1.0000   1.0000   1.0000   1.0000   1.0000   1.0000
     1.0000   1.0000   1.0000   1.0000   1.0000   1.0000   1.0000   1.0000
     1.0000   1.0000   1.0000   1.0000   1.0000   1.0000   1.0000   1.0000
     0.9997   0.9997   0.0000   0.0000   0.0000   0.0000   0.0000   0.0000
     0.0000   0.0000

          k = 0.0000 0.0000 0.4899 (  3184 PWs)   bands (ev):

   -74.4252 -74.4249 -70.0012 -70.0010 -43.1662 -43.1650 -43.1650 -43.1643
   -43.1147 -43.1147 -38.8010 -38.8009 -38.7824 -38.7806 -38.7806 -38.7795
    -5.9013  -5.3858  -5.3359  -5.2364   2.3054   2.4497   2.5904   2.8284
     3.1685   3.1964   3.4374   3.5741   3.7727   3.7781   3.9985   4.1485
     4.8514   4.9877   5.0779   5.2093   5.5415   6.0870   6.2133   6.2978
     6.7018   7.1351   8.3284   8.6288   8.6752   8.7476   8.9645   9.3043
     9.5047   9.6590

     occupation numbers 
     1.0000   1.0000   1.0000   1.0000   1.0000   1.0000   1.0000   1.0000
     1.0000   1.0000   1.0000   1.0000   1.0000   1.0000   1.0000   1.0000
     1.0000   1.0000   1.0000   1.0000   1.0000   1.0000   1.0000   1.0000
     1.0000   1.0000   1.0000   1.0000   1.0000   1.0000   1.0000   1.0000
     1.0000   1.0000   1.0000   1.0000   1.0000   1.0000   1.0000   1.0000
     1.0000   1.0000   0.0000   0.0000   0.0000   0.0000   0.0000   0.0000
     0.0000   0.0000

          k = 0.0000 0.0000 0.9798 (  3151 PWs)   bands (ev):

   -74.4249 -74.4249 -70.0010 -70.0009 -43.1662 -43.1662 -43.1648 -43.1646
   -43.1146 -43.1145 -38.8008 -38.8008 -38.7827 -38.7825 -38.7802 -38.7800
    -5.5076  -5.4194  -5.2014  -5.1955   2.1209   2.1263   2.4462   2.4776
     3.3319   3.3579   3.5412   3.5688   3.9222   3.9441   4.1202   4.2039
     4.9645   4.9670   5.0889   5.1393   5.4771   5.5497   6.1228   6.2434
     6.4666   6.6015   8.3581   8.3849   8.6807   8.8846   8.9926   9.0078
     9.3259   9.3952

     occupation numbers 
     1.0000   1.0000   1.0000   1.0000   1.0000   1.0000   1.0000   1.0000
     1.0000   1.0000   1.0000   1.0000   1.0000   1.0000   1.0000   1.0000
     1.0000   1.0000   1.0000   1.0000   1.0000   1.0000   1.0000   1.0000
     1.0000   1.0000   1.0000   1.0000   1.0000   1.0000   1.0000   1.0000
     1.0000   1.0000   1.0000   1.0000   1.0000   1.0000   1.0000   1.0000
     1.0000   1.0000   0.0000   0.0000   0.0000   0.0000   0.0000   0.0000
     0.0000   0.0000

          k = 0.0000 0.3849-0.1361 (  3185 PWs)   bands (ev):

   -74.4251 -74.4250 -70.0012 -70.0011 -43.1661 -43.1648 -43.1645 -43.1640
   -43.1148 -43.1147 -38.8011 -38.8009 -38.7820 -38.7802 -38.7799 -38.7793
    -5.9637  -5.6219  -5.3563  -5.2410   2.2463   2.4269   2.6315   2.8766
     3.1419   3.3040   3.4475   3.4815   3.8118   3.8474   4.1516   4.1772
     4.9196   5.0169   5.0671   5.0909   5.7310   6.3251   6.3352   6.7539
     6.8625   7.2412   8.4105   8.6733   8.7672   8.7968   9.1353   9.5851
     9.6385   9.8951

     occupation numbers 
     1.0000   1.0000   1.0000   1.0000   1.0000   1.0000   1.0000   1.0000
     1.0000   1.0000   1.0000   1.0000   1.0000   1.0000   1.0000   1.0000
     1.0000   1.0000   1.0000   1.0000   1.0000   1.0000   1.0000   1.0000
     1.0000   1.0000   1.0000   1.0000   1.0000   1.0000   1.0000   1.0000
     1.0000   1.0000   1.0000   1.0000   1.0000   1.0000   1.0000   1.0000
     1.0000   1.0000   0.0000   0.0000   0.0000   0.0000   0.0000   0.0000
     0.0000   0.0000

          k = 0.0000 0.3849 0.3538 (  3165 PWs)   bands (ev):

   -74.4251 -74.4248 -70.0012 -70.0009 -43.1662 -43.1649 -43.1647 -43.1644
   -43.1148 -43.1145 -38.8011 -38.8007 -38.7824 -38.7806 -38.7803 -38.7795
    -5.8710  -5.4148  -5.4058  -5.1728   2.4303   2.5692   2.7472   2.7725
     3.1256   3.1559   3.3980   3.4628   3.6330   3.8326   4.0632   4.1627
     4.8576   4.9885   5.0516   5.2076   5.4522   5.7920   6.3100   6.3384
     6.7675   7.1475   8.3029   8.5860   8.8334   8.8524   9.0763   9.1158
     9.5987   9.7491

     occupation numbers 
     1.0000   1.0000   1.0000   1.0000   1.0000   1.0000   1.0000   1.0000
     1.0000   1.0000   1.0000   1.0000   1.0000   1.0000   1.0000   1.0000
     1.0000   1.0000   1.0000   1.0000   1.0000   1.0000   1.0000   1.0000
     1.0000   1.0000   1.0000   1.0000   1.0000   1.0000   1.0000   1.0000
     1.0000   1.0000   1.0000   1.0000   1.0000   1.0000   1.0000   1.0000
     1.0000   1.0000   0.0000   0.0000   0.0000   0.0000   0.0000   0.0000
     0.0000   0.0000

          k = 0.0000 0.3849 0.8437 (  3166 PWs)   bands (ev):

   -74.4250 -74.4249 -70.0010 -70.0009 -43.1660 -43.1657 -43.1655 -43.1648
   -43.1147 -43.1146 -38.8009 -38.8008 -38.7823 -38.7818 -38.7812 -38.7802
    -5.5182  -5.3325  -5.3031  -5.1851   2.3320   2.4565   2.6265   2.7015
     3.0623   3.2363   3.5059   3.5098   3.6482   3.8304   3.9590   4.0814
     4.7244   4.8901   5.1320   5.2148   5.6486   5.7840   5.8558   6.0953
     6.2479   6.5835   8.1946   8.3740   8.6470   8.7457   9.0633   9.1007
     9.2438   9.4215

     occupation numbers 
     1.0000   1.0000   1.0000   1.0000   1.0000   1.0000   1.0000   1.0000
     1.0000   1.0000   1.0000   1.0000   1.0000   1.0000   1.0000   1.0000
     1.0000   1.0000   1.0000   1.0000   1.0000   1.0000   1.0000   1.0000
     1.0000   1.0000   1.0000   1.0000   1.0000   1.0000   1.0000   1.0000
     1.0000   1.0000   1.0000   1.0000   1.0000   1.0000   1.0000   1.0000
     1.0000   1.0000   0.0001   0.0000   0.0000   0.0000   0.0000   0.0000
     0.0000   0.0000

          k = 0.0000 0.3849-1.1159 (  3158 PWs)   bands (ev):

   -74.4249 -74.4249 -70.0010 -70.0009 -43.1663 -43.1659 -43.1650 -43.1647
   -43.1147 -43.1145 -38.8009 -38.8007 -38.7826 -38.7822 -38.7806 -38.7800
    -5.4616  -5.3842  -5.3115  -5.1787   2.2145   2.2822   2.5587   2.5939
     3.2104   3.3134   3.4625   3.5764   3.7279   3.8913   4.0602   4.1731
     4.8673   4.9474   5.0994   5.1770   5.5004   5.7130   5.8744   6.2395
     6.3110   6.6131   8.3316   8.4217   8.7045   8.8039   9.0178   9.0613
     9.2038   9.3397

     occupation numbers 
     1.0000   1.0000   1.0000   1.0000   1.0000   1.0000   1.0000   1.0000
     1.0000   1.0000   1.0000   1.0000   1.0000   1.0000   1.0000   1.0000
     1.0000   1.0000   1.0000   1.0000   1.0000   1.0000   1.0000   1.0000
     1.0000   1.0000   1.0000   1.0000   1.0000   1.0000   1.0000   1.0000
     1.0000   1.0000   1.0000   1.0000   1.0000   1.0000   1.0000   1.0000
     1.0000   1.0000   0.0000   0.0000   0.0000   0.0000   0.0000   0.0000
     0.0000   0.0000

          k = 0.0000 0.3849-0.6260 (  3178 PWs)   bands (ev):

   -74.4251 -74.4250 -70.0011 -70.0010 -43.1658 -43.1655 -43.1645 -43.1645
   -43.1148 -43.1147 -38.8010 -38.8009 -38.7817 -38.7814 -38.7800 -38.7799
    -5.6783  -5.6173  -5.3716  -5.2181   2.4474   2.5616   2.6977   2.7928
     3.2141   3.2174   3.3737   3.4241   3.5451   3.7939   4.1084   4.1356
     4.9101   4.9940   5.0687   5.0932   5.6991   6.0440   6.1627   6.3496
     6.6964   6.7637   8.4701   8.5502   8.7385   8.8226   9.2266   9.2752
     9.3543   9.5441

     occupation numbers 
     1.0000   1.0000   1.0000   1.0000   1.0000   1.0000   1.0000   1.0000
     1.0000   1.0000   1.0000   1.0000   1.0000   1.0000   1.0000   1.0000
     1.0000   1.0000   1.0000   1.0000   1.0000   1.0000   1.0000   1.0000
     1.0000   1.0000   1.0000   1.0000   1.0000   1.0000   1.0000   1.0000
     1.0000   1.0000   1.0000   1.0000   1.0000   1.0000   1.0000   1.0000
     1.0000   1.0000   0.0000   0.0000   0.0000   0.0000   0.0000   0.0000
     0.0000   0.0000

          k = 0.3333 0.1925-0.2722 (  3186 PWs)   bands (ev):

   -74.4252 -74.4250 -70.0012 -70.0010 -43.1660 -43.1648 -43.1644 -43.1641
   -43.1148 -43.1147 -38.8011 -38.8010 -38.7820 -38.7801 -38.7798 -38.7794
    -5.9143  -5.5075  -5.4170  -5.3656   2.2776   2.5295   2.6280   2.8169
     3.1408   3.3100   3.3919   3.4021   3.8623   3.8646   4.1609   4.1914
     4.9539   4.9995   5.0421   5.0529   5.8773   6.2765   6.3758   6.7408
     6.8609   7.2060   8.4415   8.6022   8.8120   8.8594   9.1117   9.4163
     9.6490   9.8524

     occupation numbers 
     1.0000   1.0000   1.0000   1.0000   1.0000   1.0000   1.0000   1.0000
     1.0000   1.0000   1.0000   1.0000   1.0000   1.0000   1.0000   1.0000
     1.0000   1.0000   1.0000   1.0000   1.0000   1.0000   1.0000   1.0000
     1.0000   1.0000   1.0000   1.0000   1.0000   1.0000   1.0000   1.0000
     1.0000   1.0000   1.0000   1.0000   1.0000   1.0000   1.0000   1.0000
     1.0000   1.0000   0.0000   0.0000   0.0000   0.0000   0.0000   0.0000
     0.0000   0.0000

          k = 0.3333 0.1925 0.2177 (  3178 PWs)   bands (ev):

   -74.4251 -74.4249 -70.0012 -70.0010 -43.1663 -43.1650 -43.1647 -43.1643
   -43.1148 -43.1146 -38.8011 -38.8008 -38.7825 -38.7807 -38.7803 -38.7794
    -5.9383  -5.3739  -5.3340  -5.2039   2.2994   2.4530   2.5804   2.8444
     3.1586   3.1934   3.4549   3.6013   3.7515   3.7765   3.9860   4.1456
     4.8304   5.0088   5.0875   5.1974   5.5497   5.9770   6.2572   6.2904
     6.7745   7.1734   8.2967   8.6396   8.6440   8.7686   9.0094   9.2927
     9.5771   9.6154

     occupation numbers 
     1.0000   1.0000   1.0000   1.0000   1.0000   1.0000   1.0000   1.0000
     1.0000   1.0000   1.0000   1.0000   1.0000   1.0000   1.0000   1.0000
     1.0000   1.0000   1.0000   1.0000   1.0000   1.0000   1.0000   1.0000
     1.0000   1.0000   1.0000   1.0000   1.0000   1.0000   1.0000   1.0000
     1.0000   1.0000   1.0000   1.0000   1.0000   1.0000   1.0000   1.0000
     1.0000   1.0000   0.0000   0.0000   0.0000   0.0000   0.0000   0.0000
     0.0000   0.0000

          k = 0.3333 0.1925 0.7076 (  3164 PWs)   bands (ev):

   -74.4250 -74.4249 -70.0010 -70.0009 -43.1660 -43.1658 -43.1655 -43.1648
   -43.1146 -43.1146 -38.8009 -38.8008 -38.7823 -38.7819 -38.7811 -38.7802
    -5.6139  -5.3393  -5.2008  -5.1802   2.5095   2.6060   2.8185   2.8390
     2.9807   3.1839   3.2800   3.3908   3.5570   3.6538   4.0042   4.1053
     4.7235   4.9768   5.1036   5.2405   5.5865   5.5937   5.6914   6.0536
     6.1181   6.6086   8.1882   8.4974   8.7950   8.8440   9.0453   9.1428
     9.1496   9.2749

     occupation numbers 
     1.0000   1.0000   1.0000   1.0000   1.0000   1.0000   1.0000   1.0000
     1.0000   1.0000   1.0000   1.0000   1.0000   1.0000   1.0000   1.0000
     1.0000   1.0000   1.0000   1.0000   1.0000   1.0000   1.0000   1.0000
     1.0000   1.0000   1.0000   1.0000   1.0000   1.0000   1.0000   1.0000
     1.0000   1.0000   1.0000   1.0000   1.0000   1.0000   1.0000   1.0000
     1.0000   1.0000   0.0001   0.0000   0.0000   0.0000   0.0000   0.0000
     0.0000   0.0000

          k = 0.3333 0.1925-1.2520 (  3156 PWs)   bands (ev):

   -74.4249 -74.4249 -70.0010 -70.0009 -43.1663 -43.1660 -43.1650 -43.1647
   -43.1146 -43.1146 -38.8008 -38.8008 -38.7827 -38.7822 -38.7806 -38.7800
    -5.5631  -5.3742  -5.2019  -5.1886   2.2415   2.2591   2.5633   2.6165
     3.2220   3.3134   3.5233   3.5804   3.7617   3.7741   4.0407   4.1690
     4.8602   4.9460   5.0943   5.1792   5.5138   5.5912   5.9213   6.1864
     6.3052   6.6344   8.3418   8.4129   8.6433   8.8474   9.0496   9.0949
     9.2409   9.4321

     occupation numbers 
     1.0000   1.0000   1.0000   1.0000   1.0000   1.0000   1.0000   1.0000
     1.0000   1.0000   1.0000   1.0000   1.0000   1.0000   1.0000   1.0000
     1.0000   1.0000   1.0000   1.0000   1.0000   1.0000   1.0000   1.0000
     1.0000   1.0000   1.0000   1.0000   1.0000   1.0000   1.0000   1.0000
     1.0000   1.0000   1.0000   1.0000   1.0000   1.0000   1.0000   1.0000
     1.0000   1.0000   0.0000   0.0000   0.0000   0.0000   0.0000   0.0000
     0.0000   0.0000

          k = 0.3333 0.1925-0.7621 (  3171 PWs)   bands (ev):

   -74.4250 -74.4250 -70.0010 -70.0010 -43.1657 -43.1655 -43.1645 -43.1645
   -43.1147 -43.1146 -38.8009 -38.8009 -38.7816 -38.7814 -38.7800 -38.7799
    -5.6494  -5.5753  -5.3356  -5.3305   2.3835   2.4085   2.6644   2.6960
     3.2262   3.2265   3.4578   3.4775   3.8173   3.8217   4.1063   4.1269
     4.8963   4.9176   5.0727   5.0997   5.9184   6.0156   6.2971   6.3614
     6.6748   6.7909   8.4181   8.4662   8.7357   8.7362   9.1980   9.2860
     9.4837   9.5883

     occupation numbers 
     1.0000   1.0000   1.0000   1.0000   1.0000   1.0000   1.0000   1.0000
     1.0000   1.0000   1.0000   1.0000   1.0000   1.0000   1.0000   1.0000
     1.0000   1.0000   1.0000   1.0000   1.0000   1.0000   1.0000   1.0000
     1.0000   1.0000   1.0000   1.0000   1.0000   1.0000   1.0000   1.0000
     1.0000   1.0000   1.0000   1.0000   1.0000   1.0000   1.0000   1.0000
     1.0000   1.0000   0.0000   0.0000   0.0000   0.0000   0.0000   0.0000
     0.0000   0.0000

          k = 0.3333-0.5774 0.0000 (  3195 PWs)   bands (ev):

   -74.4252 -74.4250 -70.0012 -70.0011 -43.1661 -43.1649 -43.1644 -43.1641
   -43.1148 -43.1147 -38.8011 -38.8010 -38.7820 -38.7802 -38.7799 -38.7794
    -5.7719  -5.6295  -5.5767  -5.2363   2.4450   2.5750   2.7660   2.9687
     3.1063   3.1369   3.2894   3.3378   3.5681   4.0200   4.1809   4.1874
     4.9288   4.9779   5.0202   5.0906   5.6260   6.2261   6.4725   6.6940
     6.8221   7.2309   8.5071   8.6393   8.7917   8.8937   9.1613   9.3912
     9.5269   9.7449

     occupation numbers 
     1.0000   1.0000   1.0000   1.0000   1.0000   1.0000   1.0000   1.0000
     1.0000   1.0000   1.0000   1.0000   1.0000   1.0000   1.0000   1.0000
     1.0000   1.0000   1.0000   1.0000   1.0000   1.0000   1.0000   1.0000
     1.0000   1.0000   1.0000   1.0000   1.0000   1.0000   1.0000   1.0000
     1.0000   1.0000   1.0000   1.0000   1.0000   1.0000   1.0000   1.0000
     1.0000   1.0000   0.0000   0.0000   0.0000   0.0000   0.0000   0.0000
     0.0000   0.0000

          k = 0.3333-0.5774 0.4899 (  3179 PWs)   bands (ev):

   -74.4250 -74.4250 -70.0011 -70.0011 -43.1658 -43.1655 -43.1646 -43.1645
   -43.1147 -43.1147 -38.8010 -38.8009 -38.7817 -38.7814 -38.7800 -38.7799
    -5.7370  -5.5916  -5.3138  -5.2385   2.4297   2.5918   2.7000   2.7620
     3.2094   3.2312   3.3866   3.4478   3.5343   3.7408   4.1183   4.1200
     4.9121   5.0026   5.0898   5.0931   5.8130   5.8713   6.2599   6.3007
     6.6704   6.7756   8.4437   8.5761   8.7518   8.8164   9.2063   9.3065
     9.4585   9.4765

     occupation numbers 
     1.0000   1.0000   1.0000   1.0000   1.0000   1.0000   1.0000   1.0000
     1.0000   1.0000   1.0000   1.0000   1.0000   1.0000   1.0000   1.0000
     1.0000   1.0000   1.0000   1.0000   1.0000   1.0000   1.0000   1.0000
     1.0000   1.0000   1.0000   1.0000   1.0000   1.0000   1.0000   1.0000
     1.0000   1.0000   1.0000   1.0000   1.0000   1.0000   1.0000   1.0000
     1.0000   1.0000   0.0000   0.0000   0.0000   0.0000   0.0000   0.0000
     0.0000   0.0000

          k = 0.3333-0.5774 0.9798 (  3173 PWs)   bands (ev):

   -74.4250 -74.4249 -70.0011 -70.0009 -43.1663 -43.1660 -43.1650 -43.1648
   -43.1147 -43.1146 -38.8010 -38.8008 -38.7826 -38.7823 -38.7806 -38.7801
    -5.5394  -5.3503  -5.2330  -5.2183   2.4025   2.4470   2.8779   2.9575
     3.0611   3.0857   3.2736   3.3313   3.5928   3.6407   4.1206   4.1810
     4.8839   4.9847   5.0996   5.2143   5.3972   5.5094   5.7741   6.0652
     6.2230   6.5731   8.3141   8.4958   8.9041   8.9120   8.9783   9.0728
     9.1014   9.2913

     occupation numbers 
     1.0000   1.0000   1.0000   1.0000   1.0000   1.0000   1.0000   1.0000
     1.0000   1.0000   1.0000   1.0000   1.0000   1.0000   1.0000   1.0000
     1.0000   1.0000   1.0000   1.0000   1.0000   1.0000   1.0000   1.0000
     1.0000   1.0000   1.0000   1.0000   1.0000   1.0000   1.0000   1.0000
     1.0000   1.0000   1.0000   1.0000   1.0000   1.0000   1.0000   1.0000
     1.0000   1.0000   0.0000   0.0000   0.0000   0.0000   0.0000   0.0000
     0.0000   0.0000

          k =-0.3333 0.1925 0.1361 (  3185 PWs)   bands (ev):

   -74.4253 -74.4249 -70.0013 -70.0010 -43.1666 -43.1645 -43.1642 -43.1640
   -43.1149 -43.1146 -38.8013 -38.8008 -38.7829 -38.7800 -38.7792 -38.7791
    -5.9723  -5.5903  -5.3961  -5.2239   2.2040   2.4983   2.6021   3.0597
     3.0599   3.1996   3.3773   3.4213   3.6868   4.1812   4.1814   4.2272
     5.0202   5.0206   5.1042   5.1263   5.3154   5.8807   6.4663   6.5169
     7.4695   7.4697   8.5627   8.8741   8.8743   8.9089   9.0039   9.1007
     9.5023   9.5058

     occupation numbers 
     1.0000   1.0000   1.0000   1.0000   1.0000   1.0000   1.0000   1.0000
     1.0000   1.0000   1.0000   1.0000   1.0000   1.0000   1.0000   1.0000
     1.0000   1.0000   1.0000   1.0000   1.0000   1.0000   1.0000   1.0000
     1.0000   1.0000   1.0000   1.0000   1.0000   1.0000   1.0000   1.0000
     1.0000   1.0000   1.0000   1.0000   1.0000   1.0000   1.0000   1.0000
     0.9999   0.9999   0.0000   0.0000   0.0000   0.0000   0.0000   0.0000
     0.0000   0.0000

          k =-0.3333 0.1925-0.3538 (  3165 PWs)   bands (ev):

   -74.4251 -74.4248 -70.0012 -70.0009 -43.1661 -43.1649 -43.1649 -43.1643
   -43.1148 -43.1145 -38.8011 -38.8007 -38.7823 -38.7806 -38.7805 -38.7795
    -5.8696  -5.4450  -5.3744  -5.1755   2.4226   2.5885   2.7317   2.7471
     3.1536   3.1727   3.4161   3.4994   3.6168   3.7457   4.0694   4.1602
     4.8889   4.9984   5.0641   5.1952   5.4388   5.8647   6.2464   6.3831
     6.7100   7.1109   8.3238   8.5724   8.8412   8.8579   9.0506   9.1802
     9.5827   9.8030

     occupation numbers 
     1.0000   1.0000   1.0000   1.0000   1.0000   1.0000   1.0000   1.0000
     1.0000   1.0000   1.0000   1.0000   1.0000   1.0000   1.0000   1.0000
     1.0000   1.0000   1.0000   1.0000   1.0000   1.0000   1.0000   1.0000
     1.0000   1.0000   1.0000   1.0000   1.0000   1.0000   1.0000   1.0000
     1.0000   1.0000   1.0000   1.0000   1.0000   1.0000   1.0000   1.0000
     1.0000   1.0000   0.0000   0.0000   0.0000   0.0000   0.0000   0.0000
     0.0000   0.0000

          k =-0.3333 0.1925-0.8437 (  3166 PWs)   bands (ev):

   -74.4249 -74.4249 -70.0010 -70.0010 -43.1663 -43.1662 -43.1649 -43.1646
   -43.1146 -43.1146 -38.8009 -38.8008 -38.7827 -38.7825 -38.7803 -38.7800
    -5.5083  -5.3797  -5.2441  -5.2070   2.3126   2.3222   2.7367   2.8042
     3.2059   3.2959   3.3392   3.3932   3.5595   3.6578   4.1800   4.2047
     4.9972   5.0148   5.1043   5.1800   5.3679   5.4399   5.8620   6.0210
     6.3772   6.5460   8.4650   8.5114   8.9011   8.9550   8.9573   9.0382
     9.1379   9.3067

     occupation numbers 
     1.0000   1.0000   1.0000   1.0000   1.0000   1.0000   1.0000   1.0000
     1.0000   1.0000   1.0000   1.0000   1.0000   1.0000   1.0000   1.0000
     1.0000   1.0000   1.0000   1.0000   1.0000   1.0000   1.0000   1.0000
     1.0000   1.0000   1.0000   1.0000   1.0000   1.0000   1.0000   1.0000
     1.0000   1.0000   1.0000   1.0000   1.0000   1.0000   1.0000   1.0000
     1.0000   1.0000   0.0000   0.0000   0.0000   0.0000   0.0000   0.0000
     0.0000   0.0000

          k =-0.3333 0.1925 1.1159 (  3158 PWs)   bands (ev):

   -74.4249 -74.4249 -70.0010 -70.0009 -43.1662 -43.1662 -43.1648 -43.1646
   -43.1146 -43.1146 -38.8009 -38.8008 -38.7827 -38.7825 -38.7803 -38.7800
    -5.4349  -5.4266  -5.2912  -5.1833   2.2062   2.2486   2.5815   2.6208
     3.2874   3.3539   3.3853   3.5213   3.6761   3.8254   4.1660   4.2112
     4.9818   5.0408   5.0890   5.1363   5.3924   5.5779   5.9200   6.0857
     6.4205   6.5795   8.4319   8.5273   8.8760   8.9102   8.9384   9.0512
     9.1287   9.2218

     occupation numbers 
     1.0000   1.0000   1.0000   1.0000   1.0000   1.0000   1.0000   1.0000
     1.0000   1.0000   1.0000   1.0000   1.0000   1.0000   1.0000   1.0000
     1.0000   1.0000   1.0000   1.0000   1.0000   1.0000   1.0000   1.0000
     1.0000   1.0000   1.0000   1.0000   1.0000   1.0000   1.0000   1.0000
     1.0000   1.0000   1.0000   1.0000   1.0000   1.0000   1.0000   1.0000
     1.0000   1.0000   0.0000   0.0000   0.0000   0.0000   0.0000   0.0000
     0.0000   0.0000

          k =-0.3333 0.1925 0.6260 (  3178 PWs)   bands (ev):

   -74.4252 -74.4249 -70.0012 -70.0009 -43.1661 -43.1650 -43.1649 -43.1643
   -43.1148 -43.1146 -38.8011 -38.8008 -38.7823 -38.7806 -38.7806 -38.7795
    -5.7164  -5.5448  -5.4179  -5.2060   2.4798   2.5297   2.7323   2.8513
     3.0709   3.1698   3.3413   3.3697   3.6340   3.9741   4.0924   4.1839
     4.8993   4.9013   5.0171   5.2326   5.3912   5.8907   6.3113   6.4478
     6.6308   7.1373   8.3233   8.5509   8.7727   8.8753   8.9838   9.1815
     9.3441   9.7587

     occupation numbers 
     1.0000   1.0000   1.0000   1.0000   1.0000   1.0000   1.0000   1.0000
     1.0000   1.0000   1.0000   1.0000   1.0000   1.0000   1.0000   1.0000
     1.0000   1.0000   1.0000   1.0000   1.0000   1.0000   1.0000   1.0000
     1.0000   1.0000   1.0000   1.0000   1.0000   1.0000   1.0000   1.0000
     1.0000   1.0000   1.0000   1.0000   1.0000   1.0000   1.0000   1.0000
     1.0000   1.0000   0.0000   0.0000   0.0000   0.0000   0.0000   0.0000
     0.0000   0.0000

          k = 0.3333-0.5774-0.4899 (  3179 PWs)   bands (ev):

   -74.4252 -74.4249 -70.0012 -70.0009 -43.1663 -43.1649 -43.1648 -43.1644
   -43.1148 -43.1146 -38.8011 -38.8008 -38.7825 -38.7806 -38.7804 -38.7795
    -5.7593  -5.5397  -5.3684  -5.2134   2.4686   2.5364   2.7566   2.8477
     3.0473   3.1562   3.3405   3.3609   3.6509   3.9896   4.0823   4.1802
     4.8606   4.9081   5.0234   5.2377   5.4190   5.8723   6.2161   6.4507
     6.7163   7.1795   8.2867   8.5967   8.7649   8.8621   8.9739   9.1679
     9.3789   9.6880

     occupation numbers 
     1.0000   1.0000   1.0000   1.0000   1.0000   1.0000   1.0000   1.0000
     1.0000   1.0000   1.0000   1.0000   1.0000   1.0000   1.0000   1.0000
     1.0000   1.0000   1.0000   1.0000   1.0000   1.0000   1.0000   1.0000
     1.0000   1.0000   1.0000   1.0000   1.0000   1.0000   1.0000   1.0000
     1.0000   1.0000   1.0000   1.0000   1.0000   1.0000   1.0000   1.0000
     1.0000   1.0000   0.0000   0.0000   0.0000   0.0000   0.0000   0.0000
     0.0000   0.0000

          k = 0.3333-0.5774-0.9798 (  3173 PWs)   bands (ev):

   -74.4250 -74.4250 -70.0010 -70.0010 -43.1661 -43.1658 -43.1655 -43.1648
   -43.1147 -43.1146 -38.8009 -38.8008 -38.7824 -38.7819 -38.7812 -38.7802
    -5.5430  -5.3249  -5.2781  -5.1949   2.4244   2.5678   2.7240   2.8447
     2.9625   3.1881   3.3054   3.4461   3.6621   3.6896   4.0004   4.1174
     4.7106   4.9287   5.1263   5.2290   5.5560   5.7121   5.8541   6.0161
     6.1657   6.5733   8.1704   8.4259   8.7564   8.7929   9.0290   9.1197
     9.1774   9.3718

     occupation numbers 
     1.0000   1.0000   1.0000   1.0000   1.0000   1.0000   1.0000   1.0000
     1.0000   1.0000   1.0000   1.0000   1.0000   1.0000   1.0000   1.0000
     1.0000   1.0000   1.0000   1.0000   1.0000   1.0000   1.0000   1.0000
     1.0000   1.0000   1.0000   1.0000   1.0000   1.0000   1.0000   1.0000
     1.0000   1.0000   1.0000   1.0000   1.0000   1.0000   1.0000   1.0000
     1.0000   1.0000   0.0002   0.0000   0.0000   0.0000   0.0000   0.0000
     0.0000   0.0000

 ------ SPIN DOWN ----------


          k = 0.0000 0.0000 0.0000 (  3203 PWs)   bands (ev):

   -74.4253 -74.4250 -70.0013 -70.0010 -43.1666 -43.1646 -43.1643 -43.1641
   -43.1151 -43.1146 -38.8014 -38.8008 -38.7830 -38.7800 -38.7793 -38.7792
    -6.1222  -5.4354  -5.4088  -5.1757   2.0333   2.2427   2.3658   3.0483
     3.0485   3.3839   3.4169   3.5632   3.9850   4.1361   4.1363   4.2172
     5.0758   5.0837   5.0842   5.0854   5.3387   6.2026   6.4961   6.5486
     7.5043   7.5046   8.3922   8.7576   8.7758   8.7760   8.9282   9.3060
     9.4367   9.6011

     occupation numbers 
     1.0000   1.0000   1.0000   1.0000   1.0000   1.0000   1.0000   1.0000
     1.0000   1.0000   1.0000   1.0000   1.0000   1.0000   1.0000   1.0000
     1.0000   1.0000   1.0000   1.0000   1.0000   1.0000   1.0000   1.0000
     1.0000   1.0000   1.0000   1.0000   1.0000   1.0000   1.0000   1.0000
     1.0000   1.0000   1.0000   1.0000   1.0000   1.0000   1.0000   1.0000
     0.9997   0.9997   0.0000   0.0000   0.0000   0.0000   0.0000   0.0000
     0.0000   0.0000

          k = 0.0000 0.0000 0.4899 (  3184 PWs)   bands (ev):

   -74.4252 -74.4249 -70.0012 -70.0010 -43.1662 -43.1650 -43.1650 -43.1643
   -43.1147 -43.1147 -38.8010 -38.8009 -38.7824 -38.7806 -38.7806 -38.7795
    -5.9013  -5.3858  -5.3359  -5.2364   2.3054   2.4497   2.5904   2.8284
     3.1685   3.1964   3.4374   3.5741   3.7727   3.7781   3.9985   4.1485
     4.8514   4.9877   5.0779   5.2093   5.5415   6.0870   6.2133   6.2978
     6.7018   7.1351   8.3284   8.6288   8.6752   8.7476   8.9645   9.3044
     9.5047   9.6590

     occupation numbers 
     1.0000   1.0000   1.0000   1.0000   1.0000   1.0000   1.0000   1.0000
     1.0000   1.0000   1.0000   1.0000   1.0000   1.0000   1.0000   1.0000
     1.0000   1.0000   1.0000   1.0000   1.0000   1.0000   1.0000   1.0000
     1.0000   1.0000   1.0000   1.0000   1.0000   1.0000   1.0000   1.0000
     1.0000   1.0000   1.0000   1.0000   1.0000   1.0000   1.0000   1.0000
     1.0000   1.0000   0.0000   0.0000   0.0000   0.0000   0.0000   0.0000
     0.0000   0.0000

          k = 0.0000 0.0000 0.9798 (  3151 PWs)   bands (ev):

   -74.4249 -74.4249 -70.0010 -70.0009 -43.1662 -43.1662 -43.1648 -43.1646
   -43.1146 -43.1145 -38.8008 -38.8008 -38.7827 -38.7825 -38.7802 -38.7800
    -5.5076  -5.4194  -5.2014  -5.1955   2.1209   2.1263   2.4462   2.4776
     3.3319   3.3579   3.5412   3.5688   3.9222   3.9441   4.1202   4.2039
     4.9645   4.9670   5.0889   5.1393   5.4771   5.5497   6.1228   6.2434
     6.4666   6.6015   8.3581   8.3849   8.6807   8.8846   8.9926   9.0078
     9.3259   9.3952

     occupation numbers 
     1.0000   1.0000   1.0000   1.0000   1.0000   1.0000   1.0000   1.0000
     1.0000   1.0000   1.0000   1.0000   1.0000   1.0000   1.0000   1.0000
     1.0000   1.0000   1.0000   1.0000   1.0000   1.0000   1.0000   1.0000
     1.0000   1.0000   1.0000   1.0000   1.0000   1.0000   1.0000   1.0000
     1.0000   1.0000   1.0000   1.0000   1.0000   1.0000   1.0000   1.0000
     1.0000   1.0000   0.0000   0.0000   0.0000   0.0000   0.0000   0.0000
     0.0000   0.0000

          k = 0.0000 0.3849-0.1361 (  3185 PWs)   bands (ev):

   -74.4251 -74.4250 -70.0012 -70.0011 -43.1661 -43.1648 -43.1645 -43.1640
   -43.1148 -43.1147 -38.8011 -38.8009 -38.7820 -38.7802 -38.7799 -38.7793
    -5.9637  -5.6219  -5.3563  -5.2411   2.2463   2.4269   2.6315   2.8766
     3.1419   3.3040   3.4475   3.4815   3.8118   3.8474   4.1516   4.1772
     4.9196   5.0169   5.0671   5.0909   5.7310   6.3251   6.3352   6.7539
     6.8625   7.2412   8.4105   8.6733   8.7672   8.7968   9.1353   9.5851
     9.6385   9.8951

     occupation numbers 
     1.0000   1.0000   1.0000   1.0000   1.0000   1.0000   1.0000   1.0000
     1.0000   1.0000   1.0000   1.0000   1.0000   1.0000   1.0000   1.0000
     1.0000   1.0000   1.0000   1.0000   1.0000   1.0000   1.0000   1.0000
     1.0000   1.0000   1.0000   1.0000   1.0000   1.0000   1.0000   1.0000
     1.0000   1.0000   1.0000   1.0000   1.0000   1.0000   1.0000   1.0000
     1.0000   1.0000   0.0000   0.0000   0.0000   0.0000   0.0000   0.0000
     0.0000   0.0000

          k = 0.0000 0.3849 0.3538 (  3165 PWs)   bands (ev):

   -74.4251 -74.4248 -70.0012 -70.0009 -43.1662 -43.1649 -43.1647 -43.1644
   -43.1148 -43.1145 -38.8011 -38.8007 -38.7824 -38.7806 -38.7803 -38.7795
    -5.8710  -5.4148  -5.4058  -5.1728   2.4303   2.5692   2.7472   2.7725
     3.1256   3.1559   3.3980   3.4628   3.6330   3.8326   4.0632   4.1627
     4.8576   4.9885   5.0516   5.2076   5.4522   5.7920   6.3100   6.3384
     6.7675   7.1475   8.3029   8.5860   8.8334   8.8525   9.0763   9.1158
     9.5987   9.7491

     occupation numbers 
     1.0000   1.0000   1.0000   1.0000   1.0000   1.0000   1.0000   1.0000
     1.0000   1.0000   1.0000   1.0000   1.0000   1.0000   1.0000   1.0000
     1.0000   1.0000   1.0000   1.0000   1.0000   1.0000   1.0000   1.0000
     1.0000   1.0000   1.0000   1.0000   1.0000   1.0000   1.0000   1.0000
     1.0000   1.0000   1.0000   1.0000   1.0000   1.0000   1.0000   1.0000
     1.0000   1.0000   0.0000   0.0000   0.0000   0.0000   0.0000   0.0000
     0.0000   0.0000

          k = 0.0000 0.3849 0.8437 (  3166 PWs)   bands (ev):

   -74.4250 -74.4249 -70.0010 -70.0009 -43.1660 -43.1657 -43.1655 -43.1648
   -43.1147 -43.1146 -38.8009 -38.8008 -38.7823 -38.7818 -38.7812 -38.7802
    -5.5182  -5.3325  -5.3031  -5.1851   2.3320   2.4565   2.6265   2.7015
     3.0623   3.2363   3.5059   3.5098   3.6482   3.8304   3.9590   4.0814
     4.7244   4.8901   5.1320   5.2148   5.6486   5.7840   5.8558   6.0953
     6.2479   6.5835   8.1946   8.3740   8.6470   8.7457   9.0633   9.1007
     9.2438   9.4215

     occupation numbers 
     1.0000   1.0000   1.0000   1.0000   1.0000   1.0000   1.0000   1.0000
     1.0000   1.0000   1.0000   1.0000   1.0000   1.0000   1.0000   1.0000
     1.0000   1.0000   1.0000   1.0000   1.0000   1.0000   1.0000   1.0000
     1.0000   1.0000   1.0000   1.0000   1.0000   1.0000   1.0000   1.0000
     1.0000   1.0000   1.0000   1.0000   1.0000   1.0000   1.0000   1.0000
     1.0000   1.0000   0.0001   0.0000   0.0000   0.0000   0.0000   0.0000
     0.0000   0.0000

          k = 0.0000 0.3849-1.1159 (  3158 PWs)   bands (ev):

   -74.4249 -74.4249 -70.0010 -70.0009 -43.1663 -43.1659 -43.1650 -43.1647
   -43.1147 -43.1145 -38.8009 -38.8007 -38.7826 -38.7822 -38.7806 -38.7800
    -5.4616  -5.3842  -5.3115  -5.1787   2.2145   2.2822   2.5587   2.5939
     3.2104   3.3134   3.4625   3.5764   3.7279   3.8913   4.0602   4.1731
     4.8673   4.9474   5.0994   5.1770   5.5004   5.7130   5.8744   6.2395
     6.3110   6.6131   8.3316   8.4217   8.7045   8.8039   9.0178   9.0613
     9.2038   9.3397

     occupation numbers 
     1.0000   1.0000   1.0000   1.0000   1.0000   1.0000   1.0000   1.0000
     1.0000   1.0000   1.0000   1.0000   1.0000   1.0000   1.0000   1.0000
     1.0000   1.0000   1.0000   1.0000   1.0000   1.0000   1.0000   1.0000
     1.0000   1.0000   1.0000   1.0000   1.0000   1.0000   1.0000   1.0000
     1.0000   1.0000   1.0000   1.0000   1.0000   1.0000   1.0000   1.0000
     1.0000   1.0000   0.0000   0.0000   0.0000   0.0000   0.0000   0.0000
     0.0000   0.0000

          k = 0.0000 0.3849-0.6260 (  3178 PWs)   bands (ev):

   -74.4251 -74.4250 -70.0011 -70.0010 -43.1658 -43.1655 -43.1645 -43.1645
   -43.1148 -43.1147 -38.8010 -38.8009 -38.7817 -38.7814 -38.7800 -38.7799
    -5.6783  -5.6173  -5.3716  -5.2181   2.4473   2.5616   2.6977   2.7928
     3.2141   3.2174   3.3737   3.4241   3.5451   3.7939   4.1084   4.1356
     4.9101   4.9940   5.0687   5.0932   5.6991   6.0440   6.1627   6.3496
     6.6964   6.7637   8.4701   8.5502   8.7385   8.8226   9.2266   9.2752
     9.3543   9.5441

     occupation numbers 
     1.0000   1.0000   1.0000   1.0000   1.0000   1.0000   1.0000   1.0000
     1.0000   1.0000   1.0000   1.0000   1.0000   1.0000   1.0000   1.0000
     1.0000   1.0000   1.0000   1.0000   1.0000   1.0000   1.0000   1.0000
     1.0000   1.0000   1.0000   1.0000   1.0000   1.0000   1.0000   1.0000
     1.0000   1.0000   1.0000   1.0000   1.0000   1.0000   1.0000   1.0000
     1.0000   1.0000   0.0000   0.0000   0.0000   0.0000   0.0000   0.0000
     0.0000   0.0000

          k = 0.3333 0.1925-0.2722 (  3186 PWs)   bands (ev):

   -74.4252 -74.4250 -70.0012 -70.0010 -43.1660 -43.1648 -43.1644 -43.1641
   -43.1148 -43.1147 -38.8011 -38.8010 -38.7820 -38.7801 -38.7798 -38.7794
    -5.9143  -5.5075  -5.4170  -5.3656   2.2776   2.5295   2.6280   2.8169
     3.1408   3.3100   3.3919   3.4021   3.8623   3.8646   4.1609   4.1914
     4.9539   4.9995   5.0421   5.0529   5.8773   6.2765   6.3758   6.7408
     6.8609   7.2060   8.4415   8.6022   8.8120   8.8594   9.1117   9.4163
     9.6489   9.8524

     occupation numbers 
     1.0000   1.0000   1.0000   1.0000   1.0000   1.0000   1.0000   1.0000
     1.0000   1.0000   1.0000   1.0000   1.0000   1.0000   1.0000   1.0000
     1.0000   1.0000   1.0000   1.0000   1.0000   1.0000   1.0000   1.0000
     1.0000   1.0000   1.0000   1.0000   1.0000   1.0000   1.0000   1.0000
     1.0000   1.0000   1.0000   1.0000   1.0000   1.0000   1.0000   1.0000
     1.0000   1.0000   0.0000   0.0000   0.0000   0.0000   0.0000   0.0000
     0.0000   0.0000

          k = 0.3333 0.1925 0.2177 (  3178 PWs)   bands (ev):

   -74.4251 -74.4249 -70.0012 -70.0010 -43.1663 -43.1650 -43.1647 -43.1643
   -43.1148 -43.1146 -38.8011 -38.8008 -38.7825 -38.7807 -38.7803 -38.7794
    -5.9383  -5.3739  -5.3340  -5.2039   2.2994   2.4530   2.5804   2.8444
     3.1586   3.1934   3.4549   3.6013   3.7515   3.7765   3.9860   4.1456
     4.8304   5.0088   5.0875   5.1974   5.5497   5.9770   6.2572   6.2904
     6.7745   7.1734   8.2967   8.6396   8.6440   8.7686   9.0094   9.2927
     9.5771   9.6154

     occupation numbers 
     1.0000   1.0000   1.0000   1.0000   1.0000   1.0000   1.0000   1.0000
     1.0000   1.0000   1.0000   1.0000   1.0000   1.0000   1.0000   1.0000
     1.0000   1.0000   1.0000   1.0000   1.0000   1.0000   1.0000   1.0000
     1.0000   1.0000   1.0000   1.0000   1.0000   1.0000   1.0000   1.0000
     1.0000   1.0000   1.0000   1.0000   1.0000   1.0000   1.0000   1.0000
     1.0000   1.0000   0.0000   0.0000   0.0000   0.0000   0.0000   0.0000
     0.0000   0.0000

          k = 0.3333 0.1925 0.7076 (  3164 PWs)   bands (ev):

   -74.4250 -74.4249 -70.0010 -70.0009 -43.1660 -43.1658 -43.1655 -43.1648
   -43.1146 -43.1146 -38.8009 -38.8008 -38.7823 -38.7819 -38.7811 -38.7802
    -5.6139  -5.3393  -5.2008  -5.1802   2.5095   2.6060   2.8185   2.8390
     2.9807   3.1839   3.2800   3.3908   3.5569   3.6538   4.0042   4.1053
     4.7235   4.9768   5.1036   5.2405   5.5865   5.5937   5.6914   6.0536
     6.1181   6.6086   8.1882   8.4974   8.7950   8.8440   9.0453   9.1428
     9.1496   9.2749

     occupation numbers 
     1.0000   1.0000   1.0000   1.0000   1.0000   1.0000   1.0000   1.0000
     1.0000   1.0000   1.0000   1.0000   1.0000   1.0000   1.0000   1.0000
     1.0000   1.0000   1.0000   1.0000   1.0000   1.0000   1.0000   1.0000
     1.0000   1.0000   1.0000   1.0000   1.0000   1.0000   1.0000   1.0000
     1.0000   1.0000   1.0000   1.0000   1.0000   1.0000   1.0000   1.0000
     1.0000   1.0000   0.0001   0.0000   0.0000   0.0000   0.0000   0.0000
     0.0000   0.0000

          k = 0.3333 0.1925-1.2520 (  3156 PWs)   bands (ev):

   -74.4249 -74.4249 -70.0010 -70.0009 -43.1663 -43.1660 -43.1650 -43.1647
   -43.1146 -43.1145 -38.8008 -38.8007 -38.7827 -38.7822 -38.7806 -38.7800
    -5.5631  -5.3742  -5.2019  -5.1886   2.2415   2.2591   2.5633   2.6165
     3.2220   3.3134   3.5233   3.5804   3.7617   3.7741   4.0407   4.1690
     4.8602   4.9460   5.0943   5.1792   5.5138   5.5912   5.9213   6.1864
     6.3052   6.6344   8.3418   8.4129   8.6433   8.8474   9.0496   9.0949
     9.2409   9.4321

     occupation numbers 
     1.0000   1.0000   1.0000   1.0000   1.0000   1.0000   1.0000   1.0000
     1.0000   1.0000   1.0000   1.0000   1.0000   1.0000   1.0000   1.0000
     1.0000   1.0000   1.0000   1.0000   1.0000   1.0000   1.0000   1.0000
     1.0000   1.0000   1.0000   1.0000   1.0000   1.0000   1.0000   1.0000
     1.0000   1.0000   1.0000   1.0000   1.0000   1.0000   1.0000   1.0000
     1.0000   1.0000   0.0000   0.0000   0.0000   0.0000   0.0000   0.0000
     0.0000   0.0000

          k = 0.3333 0.1925-0.7621 (  3171 PWs)   bands (ev):

   -74.4250 -74.4250 -70.0010 -70.0010 -43.1657 -43.1655 -43.1645 -43.1645
   -43.1147 -43.1146 -38.8009 -38.8009 -38.7816 -38.7814 -38.7800 -38.7799
    -5.6494  -5.5753  -5.3356  -5.3305   2.3835   2.4085   2.6644   2.6960
     3.2262   3.2265   3.4578   3.4775   3.8173   3.8217   4.1063   4.1269
     4.8963   4.9176   5.0727   5.0997   5.9184   6.0156   6.2971   6.3614
     6.6748   6.7909   8.4181   8.4662   8.7357   8.7362   9.1980   9.2860
     9.4837   9.5883

     occupation numbers 
     1.0000   1.0000   1.0000   1.0000   1.0000   1.0000   1.0000   1.0000
     1.0000   1.0000   1.0000   1.0000   1.0000   1.0000   1.0000   1.0000
     1.0000   1.0000   1.0000   1.0000   1.0000   1.0000   1.0000   1.0000
     1.0000   1.0000   1.0000   1.0000   1.0000   1.0000   1.0000   1.0000
     1.0000   1.0000   1.0000   1.0000   1.0000   1.0000   1.0000   1.0000
     1.0000   1.0000   0.0000   0.0000   0.0000   0.0000   0.0000   0.0000
     0.0000   0.0000

          k = 0.3333-0.5774 0.0000 (  3195 PWs)   bands (ev):

   -74.4252 -74.4250 -70.0012 -70.0011 -43.1661 -43.1649 -43.1644 -43.1641
   -43.1148 -43.1147 -38.8011 -38.8010 -38.7820 -38.7802 -38.7799 -38.7794
    -5.7719  -5.6295  -5.5767  -5.2363   2.4450   2.5750   2.7660   2.9687
     3.1063   3.1369   3.2894   3.3378   3.5681   4.0200   4.1809   4.1874
     4.9288   4.9779   5.0202   5.0906   5.6260   6.2261   6.4725   6.6940
     6.8221   7.2309   8.5071   8.6393   8.7917   8.8937   9.1613   9.3912
     9.5269   9.7449

     occupation numbers 
     1.0000   1.0000   1.0000   1.0000   1.0000   1.0000   1.0000   1.0000
     1.0000   1.0000   1.0000   1.0000   1.0000   1.0000   1.0000   1.0000
     1.0000   1.0000   1.0000   1.0000   1.0000   1.0000   1.0000   1.0000
     1.0000   1.0000   1.0000   1.0000   1.0000   1.0000   1.0000   1.0000
     1.0000   1.0000   1.0000   1.0000   1.0000   1.0000   1.0000   1.0000
     1.0000   1.0000   0.0000   0.0000   0.0000   0.0000   0.0000   0.0000
     0.0000   0.0000

          k = 0.3333-0.5774 0.4899 (  3179 PWs)   bands (ev):

   -74.4250 -74.4250 -70.0011 -70.0011 -43.1658 -43.1655 -43.1646 -43.1645
   -43.1147 -43.1147 -38.8010 -38.8009 -38.7817 -38.7814 -38.7800 -38.7799
    -5.7370  -5.5916  -5.3138  -5.2385   2.4297   2.5918   2.7000   2.7620
     3.2094   3.2312   3.3866   3.4478   3.5343   3.7408   4.1183   4.1200
     4.9121   5.0026   5.0898   5.0931   5.8130   5.8713   6.2599   6.3007
     6.6704   6.7756   8.4437   8.5761   8.7518   8.8164   9.2063   9.3065
     9.4585   9.4765

     occupation numbers 
     1.0000   1.0000   1.0000   1.0000   1.0000   1.0000   1.0000   1.0000
     1.0000   1.0000   1.0000   1.0000   1.0000   1.0000   1.0000   1.0000
     1.0000   1.0000   1.0000   1.0000   1.0000   1.0000   1.0000   1.0000
     1.0000   1.0000   1.0000   1.0000   1.0000   1.0000   1.0000   1.0000
     1.0000   1.0000   1.0000   1.0000   1.0000   1.0000   1.0000   1.0000
     1.0000   1.0000   0.0000   0.0000   0.0000   0.0000   0.0000   0.0000
     0.0000   0.0000

          k = 0.3333-0.5774 0.9798 (  3173 PWs)   bands (ev):

   -74.4250 -74.4249 -70.0011 -70.0009 -43.1663 -43.1660 -43.1650 -43.1648
   -43.1147 -43.1146 -38.8010 -38.8008 -38.7826 -38.7823 -38.7806 -38.7801
    -5.5394  -5.3503  -5.2330  -5.2183   2.4025   2.4470   2.8779   2.9575
     3.0611   3.0857   3.2736   3.3313   3.5928   3.6407   4.1206   4.1810
     4.8839   4.9847   5.0996   5.2143   5.3972   5.5094   5.7741   6.0652
     6.2230   6.5731   8.3141   8.4958   8.9041   8.9120   8.9783   9.0728
     9.1014   9.2913

     occupation numbers 
     1.0000   1.0000   1.0000   1.0000   1.0000   1.0000   1.0000   1.0000
     1.0000   1.0000   1.0000   1.0000   1.0000   1.0000   1.0000   1.0000
     1.0000   1.0000   1.0000   1.0000   1.0000   1.0000   1.0000   1.0000
     1.0000   1.0000   1.0000   1.0000   1.0000   1.0000   1.0000   1.0000
     1.0000   1.0000   1.0000   1.0000   1.0000   1.0000   1.0000   1.0000
     1.0000   1.0000   0.0000   0.0000   0.0000   0.0000   0.0000   0.0000
     0.0000   0.0000

          k =-0.3333 0.1925 0.1361 (  3185 PWs)   bands (ev):

   -74.4253 -74.4249 -70.0013 -70.0010 -43.1666 -43.1645 -43.1642 -43.1640
   -43.1149 -43.1146 -38.8013 -38.8008 -38.7829 -38.7800 -38.7792 -38.7791
    -5.9723  -5.5903  -5.3961  -5.2239   2.2040   2.4983   2.6021   3.0597
     3.0599   3.1996   3.3773   3.4213   3.6868   4.1812   4.1814   4.2272
     5.0202   5.0206   5.1042   5.1263   5.3154   5.8807   6.4663   6.5169
     7.4695   7.4697   8.5627   8.8741   8.8743   8.9089   9.0039   9.1007
     9.5023   9.5058

     occupation numbers 
     1.0000   1.0000   1.0000   1.0000   1.0000   1.0000   1.0000   1.0000
     1.0000   1.0000   1.0000   1.0000   1.0000   1.0000   1.0000   1.0000
     1.0000   1.0000   1.0000   1.0000   1.0000   1.0000   1.0000   1.0000
     1.0000   1.0000   1.0000   1.0000   1.0000   1.0000   1.0000   1.0000
     1.0000   1.0000   1.0000   1.0000   1.0000   1.0000   1.0000   1.0000
     0.9999   0.9999   0.0000   0.0000   0.0000   0.0000   0.0000   0.0000
     0.0000   0.0000

          k =-0.3333 0.1925-0.3538 (  3165 PWs)   bands (ev):

   -74.4251 -74.4248 -70.0012 -70.0009 -43.1661 -43.1649 -43.1649 -43.1643
   -43.1148 -43.1145 -38.8011 -38.8007 -38.7823 -38.7806 -38.7805 -38.7795
    -5.8696  -5.4450  -5.3744  -5.1755   2.4226   2.5885   2.7317   2.7471
     3.1536   3.1727   3.4161   3.4994   3.6168   3.7457   4.0694   4.1602
     4.8889   4.9984   5.0641   5.1952   5.4388   5.8647   6.2464   6.3831
     6.7100   7.1109   8.3238   8.5724   8.8412   8.8579   9.0506   9.1802
     9.5827   9.8030

     occupation numbers 
     1.0000   1.0000   1.0000   1.0000   1.0000   1.0000   1.0000   1.0000
     1.0000   1.0000   1.0000   1.0000   1.0000   1.0000   1.0000   1.0000
     1.0000   1.0000   1.0000   1.0000   1.0000   1.0000   1.0000   1.0000
     1.0000   1.0000   1.0000   1.0000   1.0000   1.0000   1.0000   1.0000
     1.0000   1.0000   1.0000   1.0000   1.0000   1.0000   1.0000   1.0000
     1.0000   1.0000   0.0000   0.0000   0.0000   0.0000   0.0000   0.0000
     0.0000   0.0000

          k =-0.3333 0.1925-0.8437 (  3166 PWs)   bands (ev):

   -74.4249 -74.4249 -70.0010 -70.0010 -43.1663 -43.1662 -43.1649 -43.1646
   -43.1146 -43.1146 -38.8009 -38.8008 -38.7827 -38.7825 -38.7803 -38.7800
    -5.5083  -5.3797  -5.2441  -5.2070   2.3126   2.3222   2.7367   2.8042
     3.2059   3.2959   3.3392   3.3932   3.5595   3.6578   4.1800   4.2047
     4.9972   5.0148   5.1043   5.1800   5.3679   5.4399   5.8620   6.0210
     6.3772   6.5460   8.4650   8.5114   8.9011   8.9550   8.9573   9.0382
     9.1379   9.3067

     occupation numbers 
     1.0000   1.0000   1.0000   1.0000   1.0000   1.0000   1.0000   1.0000
     1.0000   1.0000   1.0000   1.0000   1.0000   1.0000   1.0000   1.0000
     1.0000   1.0000   1.0000   1.0000   1.0000   1.0000   1.0000   1.0000
     1.0000   1.0000   1.0000   1.0000   1.0000   1.0000   1.0000   1.0000
     1.0000   1.0000   1.0000   1.0000   1.0000   1.0000   1.0000   1.0000
     1.0000   1.0000   0.0000   0.0000   0.0000   0.0000   0.0000   0.0000
     0.0000   0.0000

          k =-0.3333 0.1925 1.1159 (  3158 PWs)   bands (ev):

   -74.4249 -74.4249 -70.0010 -70.0009 -43.1662 -43.1662 -43.1648 -43.1646
   -43.1146 -43.1146 -38.8009 -38.8008 -38.7827 -38.7825 -38.7803 -38.7800
    -5.4349  -5.4266  -5.2912  -5.1833   2.2062   2.2486   2.5815   2.6208
     3.2874   3.3539   3.3853   3.5213   3.6761   3.8254   4.1660   4.2112
     4.9818   5.0408   5.0890   5.1363   5.3924   5.5779   5.9200   6.0857
     6.4205   6.5795   8.4319   8.5273   8.8760   8.9102   8.9384   9.0512
     9.1287   9.2218

     occupation numbers 
     1.0000   1.0000   1.0000   1.0000   1.0000   1.0000   1.0000   1.0000
     1.0000   1.0000   1.0000   1.0000   1.0000   1.0000   1.0000   1.0000
     1.0000   1.0000   1.0000   1.0000   1.0000   1.0000   1.0000   1.0000
     1.0000   1.0000   1.0000   1.0000   1.0000   1.0000   1.0000   1.0000
     1.0000   1.0000   1.0000   1.0000   1.0000   1.0000   1.0000   1.0000
     1.0000   1.0000   0.0000   0.0000   0.0000   0.0000   0.0000   0.0000
     0.0000   0.0000

          k =-0.3333 0.1925 0.6260 (  3178 PWs)   bands (ev):

   -74.4252 -74.4249 -70.0012 -70.0009 -43.1661 -43.1650 -43.1649 -43.1643
   -43.1148 -43.1146 -38.8011 -38.8008 -38.7823 -38.7806 -38.7806 -38.7795
    -5.7164  -5.5448  -5.4179  -5.2060   2.4798   2.5297   2.7323   2.8513
     3.0709   3.1698   3.3413   3.3697   3.6339   3.9741   4.0924   4.1839
     4.8993   4.9013   5.0171   5.2326   5.3912   5.8907   6.3113   6.4478
     6.6308   7.1373   8.3233   8.5509   8.7727   8.8753   8.9838   9.1815
     9.3441   9.7587

     occupation numbers 
     1.0000   1.0000   1.0000   1.0000   1.0000   1.0000   1.0000   1.0000
     1.0000   1.0000   1.0000   1.0000   1.0000   1.0000   1.0000   1.0000
     1.0000   1.0000   1.0000   1.0000   1.0000   1.0000   1.0000   1.0000
     1.0000   1.0000   1.0000   1.0000   1.0000   1.0000   1.0000   1.0000
     1.0000   1.0000   1.0000   1.0000   1.0000   1.0000   1.0000   1.0000
     1.0000   1.0000   0.0000   0.0000   0.0000   0.0000   0.0000   0.0000
     0.0000   0.0000

          k = 0.3333-0.5774-0.4899 (  3179 PWs)   bands (ev):

   -74.4252 -74.4249 -70.0012 -70.0009 -43.1663 -43.1649 -43.1648 -43.1644
   -43.1148 -43.1146 -38.8011 -38.8008 -38.7825 -38.7806 -38.7804 -38.7795
    -5.7593  -5.5397  -5.3684  -5.2134   2.4686   2.5364   2.7566   2.8477
     3.0473   3.1562   3.3405   3.3609   3.6509   3.9896   4.0823   4.1802
     4.8606   4.9081   5.0234   5.2377   5.4190   5.8723   6.2161   6.4507
     6.7163   7.1795   8.2867   8.5967   8.7649   8.8621   8.9739   9.1679
     9.3789   9.6881

     occupation numbers 
     1.0000   1.0000   1.0000   1.0000   1.0000   1.0000   1.0000   1.0000
     1.0000   1.0000   1.0000   1.0000   1.0000   1.0000   1.0000   1.0000
     1.0000   1.0000   1.0000   1.0000   1.0000   1.0000   1.0000   1.0000
     1.0000   1.0000   1.0000   1.0000   1.0000   1.0000   1.0000   1.0000
     1.0000   1.0000   1.0000   1.0000   1.0000   1.0000   1.0000   1.0000
     1.0000   1.0000   0.0000   0.0000   0.0000   0.0000   0.0000   0.0000
     0.0000   0.0000

          k = 0.3333-0.5774-0.9798 (  3173 PWs)   bands (ev):

   -74.4250 -74.4250 -70.0010 -70.0010 -43.1661 -43.1658 -43.1655 -43.1648
   -43.1147 -43.1146 -38.8009 -38.8008 -38.7824 -38.7819 -38.7812 -38.7802
    -5.5430  -5.3249  -5.2781  -5.1949   2.4244   2.5678   2.7240   2.8447
     2.9625   3.1881   3.3054   3.4461   3.6621   3.6896   4.0004   4.1174
     4.7106   4.9287   5.1263   5.2290   5.5560   5.7121   5.8541   6.0161
     6.1657   6.5733   8.1704   8.4259   8.7564   8.7929   9.0290   9.1197
     9.1774   9.3718

     occupation numbers 
     1.0000   1.0000   1.0000   1.0000   1.0000   1.0000   1.0000   1.0000
     1.0000   1.0000   1.0000   1.0000   1.0000   1.0000   1.0000   1.0000
     1.0000   1.0000   1.0000   1.0000   1.0000   1.0000   1.0000   1.0000
     1.0000   1.0000   1.0000   1.0000   1.0000   1.0000   1.0000   1.0000
     1.0000   1.0000   1.0000   1.0000   1.0000   1.0000   1.0000   1.0000
     1.0000   1.0000   0.0002   0.0000   0.0000   0.0000   0.0000   0.0000
     0.0000   0.0000

     the Fermi energy is     7.8344 ev

!    total energy              =   -1411.11294149 Ry
     total all-electron energy =    -12462.546556 Ry
     estimated scf accuracy    <          8.8E-12 Ry
     smearing contrib. (-TS)   =      -0.00000217 Ry
     internal energy E=F+TS    =   -1411.11293932 Ry

     The total energy is F=E-TS. E is the sum of the following terms:
     one-electron contribution =    -609.10279682 Ry
     hartree contribution      =     338.41162998 Ry
     xc contribution           =    -132.36921629 Ry
     ewald contribution        =    -513.02136846 Ry
     one-center paw contrib.   =    -495.03118773 Ry
      -> PAW hartree energy AE =     525.48265476 Ry
      -> PAW hartree energy PS =    -528.37164658 Ry
      -> PAW xc energy AE      =    -313.52905547 Ry
      -> PAW xc energy PS      =      83.55124329 Ry
      -> total E_H with PAW    =     335.52263816 Ry
      -> total E_XC with PAW   =    -362.34702847 Ry

     total magnetization       =     0.00 Bohr mag/cell
     absolute magnetization    =    18.08 Bohr mag/cell

     convergence has been achieved in  17 iterations

     Forces acting on atoms (cartesian axes, Ry/au):

     atom    1 type  1   force =    -0.01252701    0.00715412    0.00514673
     atom    2 type  2   force =    -0.01252835    0.00715220    0.00514818
     atom    3 type  3   force =    -0.01252600    0.00715264    0.00514664
     atom    4 type  4   force =    -0.01252506    0.00715145    0.00514660
     atom    5 type  5   force =     0.01252659   -0.00715226   -0.00514713
     atom    6 type  5   force =     0.01252629   -0.00715270   -0.00514683
     atom    7 type  5   force =     0.01252660   -0.00715274   -0.00514699
     atom    8 type  5   force =     0.01252694   -0.00715272   -0.00514721
     The non-local contrib.  to forces
     atom    1 type  1   force =    -0.01170905    0.00699498    0.00487043
     atom    2 type  2   force =    -0.01170951    0.00699382    0.00487107
     atom    3 type  3   force =    -0.01170835    0.00699423    0.00487020
     atom    4 type  4   force =    -0.01170795    0.00699335    0.00487027
     atom    5 type  5   force =     0.00927041   -0.00543600   -0.00377999
     atom    6 type  5   force =     0.00927021   -0.00543618   -0.00377982
     atom    7 type  5   force =     0.00927033   -0.00543615   -0.00377987
     atom    8 type  5   force =     0.00927053   -0.00543610   -0.00378002
     The ionic contribution  to forces
     atom    1 type  1   force =    -0.00000135   -0.00000078   -0.00000055
     atom    2 type  2   force =    -0.00000135   -0.00000078   -0.00000055
     atom    3 type  3   force =    -0.00000135   -0.00000078   -0.00000055
     atom    4 type  4   force =    -0.00000135   -0.00000078   -0.00000055
     atom    5 type  5   force =     0.00000135    0.00000078    0.00000055
     atom    6 type  5   force =     0.00000135    0.00000078    0.00000055
     atom    7 type  5   force =     0.00000135    0.00000078    0.00000055
     atom    8 type  5   force =     0.00000135    0.00000078    0.00000055
     The local contribution  to forces
     atom    1 type  1   force =    -0.00407063    0.00204223    0.00160274
     atom    2 type  2   force =    -0.00406932    0.00204590    0.00160066
     atom    3 type  3   force =    -0.00407333    0.00204475    0.00160351
     atom    4 type  4   force =    -0.00407436    0.00204749    0.00160311
     atom    5 type  5   force =     0.00347847   -0.00184628   -0.00145758
     atom    6 type  5   force =     0.00347684   -0.00184951   -0.00145546
     atom    7 type  5   force =     0.00347943   -0.00184909   -0.00145724
     atom    8 type  5   force =     0.00348121   -0.00185012   -0.00145794
     The core correction contribution to forces
     atom    1 type  1   force =     0.00323319   -0.00187238   -0.00131631
     atom    2 type  2   force =     0.00323320   -0.00187238   -0.00131631
     atom    3 type  3   force =     0.00323320   -0.00187238   -0.00131631
     atom    4 type  4   force =     0.00323321   -0.00187240   -0.00131630
     atom    5 type  5   force =    -0.00024647    0.00014499    0.00009858
     atom    6 type  5   force =    -0.00024647    0.00014498    0.00009859
     atom    7 type  5   force =    -0.00024646    0.00014498    0.00009858
     atom    8 type  5   force =    -0.00024646    0.00014497    0.00009858
     The Hubbard contrib.    to forces
[...]
     1.0000   1.0000   1.0000   1.0000   1.0000   1.0000   1.0000   1.0000
     1.0000   1.0000   1.0000   1.0000   1.0000   1.0000   1.0000   1.0000
     1.0000   1.0000   0.0000   0.0000   0.0000   0.0000   0.0000   0.0000
     0.0000   0.0000

          k = 0.3333-0.5774 0.4899 (  3179 PWs)   bands (ev):

   -74.4033 -74.4033 -70.0025 -70.0025 -43.1501 -43.1498 -43.1490 -43.1490
   -43.0826 -43.0826 -38.8065 -38.8065 -38.7818 -38.7816 -38.7803 -38.7801
    -5.7447  -5.5959  -5.3247  -5.2441   2.4582   2.6403   2.6792   2.7476
     3.2441   3.2471   3.3779   3.4409   3.4872   3.6974   4.1020   4.1275
     4.9333   5.0290   5.1429   5.1450   5.7577   5.8509   6.2941   6.3298
     6.6497   6.7393   8.4361   8.5772   8.7711   8.8433   9.1799   9.2596
     9.4995   9.5143

     occupation numbers 
     1.0000   1.0000   1.0000   1.0000   1.0000   1.0000   1.0000   1.0000
     1.0000   1.0000   1.0000   1.0000   1.0000   1.0000   1.0000   1.0000
     1.0000   1.0000   1.0000   1.0000   1.0000   1.0000   1.0000   1.0000
     1.0000   1.0000   1.0000   1.0000   1.0000   1.0000   1.0000   1.0000
     1.0000   1.0000   1.0000   1.0000   1.0000   1.0000   1.0000   1.0000
     1.0000   1.0000   0.0000   0.0000   0.0000   0.0000   0.0000   0.0000
     0.0000   0.0000

          k = 0.3333-0.5774 0.9798 (  3173 PWs)   bands (ev):

   -74.4033 -74.4031 -70.0025 -70.0024 -43.1507 -43.1504 -43.1493 -43.1491
   -43.0826 -43.0825 -38.8065 -38.8064 -38.7828 -38.7825 -38.7808 -38.7803
    -5.5458  -5.3511  -5.2440  -5.2385   2.4548   2.4883   2.8689   2.9609
     3.0059   3.0598   3.2281   3.3591   3.5094   3.5903   4.1048   4.1852
     4.9172   5.0116   5.1446   5.2395   5.4543   5.5121   5.7956   6.0857
     6.2631   6.5802   8.3449   8.4946   8.8743   8.9348   9.0077   9.0659
     9.1295   9.2997

     occupation numbers 
     1.0000   1.0000   1.0000   1.0000   1.0000   1.0000   1.0000   1.0000
     1.0000   1.0000   1.0000   1.0000   1.0000   1.0000   1.0000   1.0000
     1.0000   1.0000   1.0000   1.0000   1.0000   1.0000   1.0000   1.0000
     1.0000   1.0000   1.0000   1.0000   1.0000   1.0000   1.0000   1.0000
     1.0000   1.0000   1.0000   1.0000   1.0000   1.0000   1.0000   1.0000
     1.0000   1.0000   0.0000   0.0000   0.0000   0.0000   0.0000   0.0000
     0.0000   0.0000

          k =-0.3333 0.1925 0.1361 (  3185 PWs)   bands (ev):

   -74.4035 -74.4032 -70.0028 -70.0024 -43.1508 -43.1490 -43.1486 -43.1484
   -43.0828 -43.0825 -38.8069 -38.8064 -38.7830 -38.7803 -38.7795 -38.7794
    -5.9726  -5.5935  -5.3996  -5.2406   2.2410   2.4340   2.5940   3.1030
     3.1635   3.1639   3.3344   3.4091   3.6143   4.2001   4.2007   4.2358
     5.0965   5.0974   5.1417   5.1937   5.3522   5.8557   6.4942   6.4975
     7.3408   7.3413   8.5877   8.8910   8.8913   8.9400   9.0354   9.0487
     9.4156   9.5132

     occupation numbers 
     1.0000   1.0000   1.0000   1.0000   1.0000   1.0000   1.0000   1.0000
     1.0000   1.0000   1.0000   1.0000   1.0000   1.0000   1.0000   1.0000
     1.0000   1.0000   1.0000   1.0000   1.0000   1.0000   1.0000   1.0000
     1.0000   1.0000   1.0000   1.0000   1.0000   1.0000   1.0000   1.0000
     1.0000   1.0000   1.0000   1.0000   1.0000   1.0000   1.0000   1.0000
     1.0000   1.0000   0.0000   0.0000   0.0000   0.0000   0.0000   0.0000
     0.0000   0.0000

          k =-0.3333 0.1925-0.3538 (  3165 PWs)   bands (ev):

   -74.4034 -74.4031 -70.0026 -70.0024 -43.1504 -43.1494 -43.1493 -43.1487
   -43.0827 -43.0824 -38.8066 -38.8063 -38.7825 -38.7808 -38.7807 -38.7798
    -5.8747  -5.4520  -5.3779  -5.1883   2.4506   2.5387   2.7209   2.8102
     3.1549   3.2565   3.3589   3.4537   3.5839   3.7388   4.0416   4.1722
     4.9078   5.0454   5.1315   5.2281   5.4825   5.9033   6.1585   6.3908
     6.7076   7.0385   8.3588   8.5641   8.8396   8.8825   9.0782   9.1824
     9.5496   9.8011

     occupation numbers 
     1.0000   1.0000   1.0000   1.0000   1.0000   1.0000   1.0000   1.0000
     1.0000   1.0000   1.0000   1.0000   1.0000   1.0000   1.0000   1.0000
     1.0000   1.0000   1.0000   1.0000   1.0000   1.0000   1.0000   1.0000
     1.0000   1.0000   1.0000   1.0000   1.0000   1.0000   1.0000   1.0000
     1.0000   1.0000   1.0000   1.0000   1.0000   1.0000   1.0000   1.0000
     1.0000   1.0000   0.0000   0.0000   0.0000   0.0000   0.0000   0.0000
     0.0000   0.0000

          k =-0.3333 0.1925-0.8437 (  3166 PWs)   bands (ev):

   -74.4032 -74.4032 -70.0025 -70.0024 -43.1506 -43.1506 -43.1493 -43.1490
   -43.0825 -43.0825 -38.8064 -38.8064 -38.7828 -38.7827 -38.7805 -38.7802
    -5.5153  -5.3801  -5.2638  -5.2184   2.3517   2.3714   2.7282   2.7980
     3.1737   3.2240   3.3714   3.3787   3.4759   3.5948   4.1756   4.2142
     5.0256   5.0503   5.1459   5.2237   5.4148   5.4664   5.8649   6.0151
     6.4113   6.5604   8.4823   8.5190   8.9138   8.9660   8.9884   9.0350
     9.1411   9.3042

     occupation numbers 
     1.0000   1.0000   1.0000   1.0000   1.0000   1.0000   1.0000   1.0000
     1.0000   1.0000   1.0000   1.0000   1.0000   1.0000   1.0000   1.0000
     1.0000   1.0000   1.0000   1.0000   1.0000   1.0000   1.0000   1.0000
     1.0000   1.0000   1.0000   1.0000   1.0000   1.0000   1.0000   1.0000
     1.0000   1.0000   1.0000   1.0000   1.0000   1.0000   1.0000   1.0000
     1.0000   1.0000   0.0000   0.0000   0.0000   0.0000   0.0000   0.0000
     0.0000   0.0000

          k =-0.3333 0.1925 1.1159 (  3158 PWs)   bands (ev):

   -74.4032 -74.4031 -70.0024 -70.0024 -43.1506 -43.1506 -43.1492 -43.1490
   -43.0825 -43.0825 -38.8064 -38.8064 -38.7828 -38.7827 -38.7805 -38.7802
    -5.4416  -5.4258  -5.3106  -5.1966   2.2367   2.2806   2.5712   2.6124
     3.2883   3.3281   3.3951   3.4492   3.6356   3.7494   4.1649   4.2170
     5.0163   5.0750   5.1338   5.1845   5.4359   5.6031   5.9128   6.0876
     6.4390   6.5902   8.4648   8.5459   8.8822   8.9108   8.9379   9.0851
     9.1130   9.2313

     occupation numbers 
     1.0000   1.0000   1.0000   1.0000   1.0000   1.0000   1.0000   1.0000
     1.0000   1.0000   1.0000   1.0000   1.0000   1.0000   1.0000   1.0000
     1.0000   1.0000   1.0000   1.0000   1.0000   1.0000   1.0000   1.0000
     1.0000   1.0000   1.0000   1.0000   1.0000   1.0000   1.0000   1.0000
     1.0000   1.0000   1.0000   1.0000   1.0000   1.0000   1.0000   1.0000
     1.0000   1.0000   0.0000   0.0000   0.0000   0.0000   0.0000   0.0000
     0.0000   0.0000

          k =-0.3333 0.1925 0.6260 (  3178 PWs)   bands (ev):

   -74.4034 -74.4031 -70.0027 -70.0024 -43.1504 -43.1495 -43.1494 -43.1486
   -43.0827 -43.0825 -38.8067 -38.8064 -38.7825 -38.7808 -38.7808 -38.7797
    -5.7120  -5.5585  -5.4230  -5.2208   2.5152   2.5228   2.7160   2.8331
     3.0683   3.2564   3.3137   3.3515   3.5815   3.9616   4.0682   4.1914
     4.9164   4.9406   5.0855   5.2578   5.4413   5.9350   6.3297   6.4695
     6.5550   7.0591   8.3443   8.5526   8.7919   8.8695   9.0132   9.1919
     9.2419   9.7491

     occupation numbers 
     1.0000   1.0000   1.0000   1.0000   1.0000   1.0000   1.0000   1.0000
     1.0000   1.0000   1.0000   1.0000   1.0000   1.0000   1.0000   1.0000
     1.0000   1.0000   1.0000   1.0000   1.0000   1.0000   1.0000   1.0000
     1.0000   1.0000   1.0000   1.0000   1.0000   1.0000   1.0000   1.0000
     1.0000   1.0000   1.0000   1.0000   1.0000   1.0000   1.0000   1.0000
     1.0000   1.0000   0.0000   0.0000   0.0000   0.0000   0.0000   0.0000
     0.0000   0.0000

          k = 0.3333-0.5774-0.4899 (  3179 PWs)   bands (ev):

   -74.4035 -74.4031 -70.0027 -70.0024 -43.1506 -43.1494 -43.1493 -43.1487
   -43.0827 -43.0825 -38.8067 -38.8064 -38.7826 -38.7809 -38.7806 -38.7797
    -5.7573  -5.5502  -5.3710  -5.2315   2.4989   2.5179   2.7512   2.8294
     3.0483   3.2434   3.3040   3.3421   3.6008   3.9839   4.0553   4.1885
     4.8850   4.9511   5.0931   5.2583   5.4776   5.9088   6.2467   6.4589
     6.6432   7.0941   8.3139   8.6026   8.7814   8.8416   9.0118   9.1821
     9.2774   9.6809

     occupation numbers 
     1.0000   1.0000   1.0000   1.0000   1.0000   1.0000   1.0000   1.0000
     1.0000   1.0000   1.0000   1.0000   1.0000   1.0000   1.0000   1.0000
     1.0000   1.0000   1.0000   1.0000   1.0000   1.0000   1.0000   1.0000
     1.0000   1.0000   1.0000   1.0000   1.0000   1.0000   1.0000   1.0000
     1.0000   1.0000   1.0000   1.0000   1.0000   1.0000   1.0000   1.0000
     1.0000   1.0000   0.0000   0.0000   0.0000   0.0000   0.0000   0.0000
     0.0000   0.0000

          k = 0.3333-0.5774-0.9798 (  3173 PWs)   bands (ev):

   -74.4032 -74.4032 -70.0025 -70.0025 -43.1505 -43.1502 -43.1499 -43.1491
   -43.0826 -43.0825 -38.8065 -38.8064 -38.7826 -38.7820 -38.7814 -38.7804
    -5.5478  -5.3260  -5.2899  -5.2155   2.4572   2.5811   2.7022   2.8223
     2.9791   3.2118   3.2746   3.4425   3.6117   3.6342   3.9587   4.0984
     4.7506   4.9459   5.1737   5.2377   5.6144   5.7089   5.8917   6.0586
     6.2058   6.5645   8.2175   8.4194   8.7248   8.8143   9.0641   9.1183
     9.2002   9.3978

     occupation numbers 
     1.0000   1.0000   1.0000   1.0000   1.0000   1.0000   1.0000   1.0000
     1.0000   1.0000   1.0000   1.0000   1.0000   1.0000   1.0000   1.0000
     1.0000   1.0000   1.0000   1.0000   1.0000   1.0000   1.0000   1.0000
     1.0000   1.0000   1.0000   1.0000   1.0000   1.0000   1.0000   1.0000
     1.0000   1.0000   1.0000   1.0000   1.0000   1.0000   1.0000   1.0000
     1.0000   1.0000   0.0000   0.0000   0.0000   0.0000   0.0000   0.0000
     0.0000   0.0000

     the Fermi energy is     7.7916 ev

!    total energy              =   -1411.11697825 Ry
     total all-electron energy =    -12462.550593 Ry
     estimated scf accuracy    <          6.6E-13 Ry
     smearing contrib. (-TS)   =      -0.00000004 Ry
     internal energy E=F+TS    =   -1411.11697821 Ry

     The total energy is F=E-TS. E is the sum of the following terms:
     one-electron contribution =    -609.32813364 Ry
     hartree contribution      =     338.52460924 Ry
     xc contribution           =    -132.35786147 Ry
     ewald contribution        =    -512.93048722 Ry
     one-center paw contrib.   =    -495.02510512 Ry
      -> PAW hartree energy AE =     525.80749817 Ry
      -> PAW hartree energy PS =    -528.69243303 Ry
      -> PAW xc energy AE      =    -313.53636665 Ry
      -> PAW xc energy PS      =      83.55843662 Ry
      -> total E_H with PAW    =     335.63967438 Ry
      -> total E_XC with PAW   =    -362.33579149 Ry

     total magnetization       =     0.00 Bohr mag/cell
     absolute magnetization    =    17.94 Bohr mag/cell

     convergence has been achieved in  10 iterations

     Forces acting on atoms (cartesian axes, Ry/au):

     atom    1 type  1   force =    -0.00000375   -0.00000691    0.00000356
     atom    2 type  2   force =    -0.00000445   -0.00000707    0.00000406
     atom    3 type  3   force =    -0.00000408   -0.00000729    0.00000390
     atom    4 type  4   force =    -0.00000358   -0.00000695    0.00000347
     atom    5 type  5   force =     0.00000405    0.00000689   -0.00000374
     atom    6 type  5   force =     0.00000388    0.00000720   -0.00000374
     atom    7 type  5   force =     0.00000393    0.00000692   -0.00000368
     atom    8 type  5   force =     0.00000400    0.00000720   -0.00000383
     The non-local contrib.  to forces
     atom    1 type  1   force =     0.00278083   -0.00130817   -0.00106994
     atom    2 type  2   force =     0.00278118   -0.00130785   -0.00107028
     atom    3 type  3   force =     0.00278221   -0.00130848   -0.00107069
     atom    4 type  4   force =     0.00278167   -0.00130858   -0.00107031
     atom    5 type  5   force =    -0.00187578    0.00096781    0.00078553
     atom    6 type  5   force =    -0.00187596    0.00096809    0.00078555
     atom    7 type  5   force =    -0.00187609    0.00096790    0.00078569
     atom    8 type  5   force =    -0.00187593    0.00096815    0.00078550
     The ionic contribution  to forces
     atom    1 type  1   force =     0.30699400   -0.17556221   -0.12596928
     atom    2 type  2   force =     0.30695793   -0.17560111   -0.12593343
     atom    3 type  3   force =     0.30690428   -0.17554822   -0.12591940
     atom    4 type  4   force =     0.30693958   -0.17555176   -0.12593975
     atom    5 type  5   force =    -0.30695699    0.17556504    0.12594582
     atom    6 type  5   force =    -0.30696073    0.17557741    0.12594357
     atom    7 type  5   force =    -0.30694013    0.17555578    0.12593838
     atom    8 type  5   force =    -0.30693795    0.17556506    0.12593410
     The local contribution  to forces
     atom    1 type  1   force =    -0.31334358    0.17893094    0.12849499
     atom    2 type  2   force =    -0.31330817    0.17896907    0.12845982
     atom    3 type  3   force =    -0.31325640    0.17891775    0.12844639
     atom    4 type  4   force =    -0.31329101    0.17892114    0.12846637
     atom    5 type  5   force =     0.30819151   -0.17616026   -0.12646818
     atom    6 type  5   force =     0.30819498   -0.17617216   -0.12646593
     atom    7 type  5   force =     0.30817453   -0.17615116   -0.12646062
     atom    8 type  5   force =     0.30817250   -0.17615971   -0.12645669
     The core correction contribution to forces
     atom    1 type  1   force =     0.00327875   -0.00190371   -0.00133469
     atom    2 type  2   force =     0.00327843   -0.00190385   -0.00133444
     atom    3 type  3   force =     0.00327823   -0.00190368   -0.00133438
     atom    4 type  4   force =     0.00327854   -0.00190362   -0.00133460
     atom    5 type  5   force =     0.00035842   -0.00020187   -0.00014902
     atom    6 type  5   force =     0.00035842   -0.00020188   -0.00014902
     atom    7 type  5   force =     0.00035842   -0.00020187   -0.00014902
     atom    8 type  5   force =     0.00035841   -0.00020188   -0.00014901
     The Hubbard contrib.    to forces
     atom    1 type  1   force =     0.00000000    0.00000000    0.00000000
     atom    2 type  2   force =     0.00000000    0.00000000    0.00000000
     atom    3 type  3   force =     0.00000000    0.00000000    0.00000000
     atom    4 type  4   force =     0.00000000    0.00000000    0.00000000
     atom    5 type  5   force =     0.00000000    0.00000000    0.00000000
     atom    6 type  5   force =     0.00000000    0.00000000    0.00000000
     atom    7 type  5   force =     0.00000000    0.00000000    0.00000000
     atom    8 type  5   force =     0.00000000    0.00000000    0.00000000
     The SCF correction term to forces
     atom    1 type  1   force =    -0.00000083    0.00000031    0.00000040
     atom    2 type  2   force =    -0.00000090    0.00000073    0.00000030
     atom    3 type  3   force =     0.00000051   -0.00000058   -0.00000011
     atom    4 type  4   force =     0.00000056   -0.00000006   -0.00000033
     atom    5 type  5   force =    -0.00000020    0.00000025    0.00000003
     atom    6 type  5   force =     0.00000009   -0.00000018    0.00000001
     atom    7 type  5   force =     0.00000011    0.00000034   -0.00000019
     atom    8 type  5   force =    -0.00000012   -0.00000035    0.00000020

     Total force =     0.000025     Total SCF correction =     0.000002
     Energy error            =      1.5E-07 Ry
     Gradient error          =      7.3E-06 Ry/Bohr

     bfgs converged in   6 scf cycles and   5 bfgs steps
     (criteria: energy <  1.0E-05 Ry, force <  1.0E-04 Ry/Bohr)

     End of BFGS Geometry Optimization

     Final energy             =   -1411.1169782531 Ry

     File ./temp/mns.bfgs deleted, as requested
Begin final coordinates

ATOMIC_POSITIONS (crystal)
Mn1              0.3697849642        0.3767097579        0.7535063348
Mn2              0.3697851249        0.8767099362        0.7535059848
Mn3              0.8697854251        0.3767097702        0.7535058582
Mn4              0.8697852497        0.8767097036        0.7535061026
S                0.0052147427       -0.0017097572       -0.0035060375
S                0.0052147887        0.4982902023       -0.0035060455
S                0.5052148481       -0.0017097438       -0.0035061616
S                0.5052148564        0.4982901309       -0.0035060358
End final coordinates



     Writing all to output data dir ./temp/mns.save/ :
     XML data file, charge density, pseudopotentials, collected wavefunctions

     init_run     :      7.14s CPU      7.60s WALL (       1 calls)
     electrons    :   1420.72s CPU   1442.12s WALL (       6 calls)
     update_pot   :      4.50s CPU      4.51s WALL (       5 calls)
     forces       :     24.73s CPU     24.77s WALL (       6 calls)

     Called by init_run:
     wfcinit      :      5.37s CPU      5.66s WALL (       1 calls)
     wfcinit:atom :      0.02s CPU      0.02s WALL (      46 calls)
     wfcinit:wfcr :      5.16s CPU      5.43s WALL (      46 calls)
     potinit      :      0.95s CPU      1.03s WALL (       1 calls)
     hinit0       :      0.50s CPU      0.53s WALL (       1 calls)

     Called by electrons:
     c_bands      :   1173.05s CPU   1190.81s WALL (      80 calls)
     sum_band     :    158.02s CPU    161.01s WALL (      80 calls)
     v_of_rho     :      3.10s CPU      3.16s WALL (      83 calls)
     v_h          :      0.10s CPU      0.10s WALL (      83 calls)
     v_xc         :      3.20s CPU      3.26s WALL (      89 calls)
     newd         :     23.61s CPU     23.75s WALL (      83 calls)
     PAW_pot      :     73.23s CPU     73.73s WALL (      88 calls)
     mix_rho      :      0.66s CPU      0.67s WALL (      80 calls)

     Called by c_bands:
     init_us_2    :     10.97s CPU     11.17s WALL (    7912 calls)
     cegterg      :   1149.14s CPU   1166.51s WALL (    3680 calls)

     Called by sum_band:
     sum_band:wei :      0.05s CPU      0.05s WALL (      80 calls)
     sum_band:loo :    118.77s CPU    121.45s WALL (      80 calls)
     sum_band:buf :      1.63s CPU      1.65s WALL (    3680 calls)
     sum_band:ini :      5.09s CPU      5.15s WALL (    3680 calls)
     sum_band:cal :     72.61s CPU     73.52s WALL (    3910 calls)
     sum_band:bec :      0.88s CPU      0.89s WALL (    3910 calls)
     addusdens    :     38.73s CPU     39.03s WALL (      80 calls)
                                        0.00s GPU  (      80 calls)
     addusd:skk   :      0.05s CPU      0.05s WALL (     400 calls)
                                        0.00s GPU  (     400 calls)

     Called by *egterg:
     cdiaghg      :     57.40s CPU     57.74s WALL (   16815 calls)
     cegterg:over :     87.01s CPU     87.70s WALL (   13503 calls)
     cegterg:upda :     51.66s CPU     52.01s WALL (   13503 calls)
     cegterg:last :    147.83s CPU    148.74s WALL (    8205 calls)
     h_psi        :    594.68s CPU    608.39s WALL (   17229 calls)
     s_psi        :    169.82s CPU    171.01s WALL (   17229 calls)
     g_psi        :      1.32s CPU      1.34s WALL (   13503 calls)

     Called by h_psi:
     h_psi:calbec :    190.74s CPU    193.51s WALL (   17229 calls)
     vloc_psi     :    226.97s CPU    236.65s WALL (   17229 calls)
     add_vuspsi   :    173.76s CPU    175.02s WALL (   17229 calls)

     General routines
     calbec       :    282.87s CPU    286.59s WALL (   22243 calls)
     fft          :      1.37s CPU      1.40s WALL (    2164 calls)
     ffts         :      0.18s CPU      0.19s WALL (     326 calls)
     fftw         :    228.96s CPU    238.73s WALL ( 1168118 calls)
     interpolate  :      0.26s CPU      0.28s WALL (     166 calls)

     Parallel routines

     PAW routines
     PAW_pot      :     73.23s CPU     73.73s WALL (      88 calls)

     PWSCF        :  24m28.08s CPU  24m50.17s WALL


   This run was terminated on:   7:17: 2  20Jan2025            

=------------------------------------------------------------------------------=
   JOB DONE.
=------------------------------------------------------------------------------=
