 INFO
nunit      1    1    1
unit   cell
celltype   primcell
shape   parapipedal
 END_INFO
 DIM-GROUP
           3           1
 PRIMVEC
    2.7895728700    0.0000000000    0.0000000000
    0.0000000000    2.7895728700    0.0000000000
    0.0000000000    0.0000000000    2.7895728700
 CONVVEC
    2.7895728700    0.0000000000    0.0000000000
    0.0000000000    2.7895728700    0.0000000000
    0.0000000000    0.0000000000    2.7895728700
 PRIMCOORD
           2           1
 26      0.0000000000     0.0000000000     0.0000000000     0.0000000000     0.0000000000     0.0000000000
 26      1.3947864930     1.3947864930     1.3947864930     0.0000000000     0.0000000000     0.0000000000
 CONVCOORD
           2           1
 26      0.0000000000     0.0000000000     0.0000000000
 26      1.3947864930     1.3947864930     1.3947864930
 RECIP-PRIMVEC
    0.3584778196    0.0000000000    0.0000000000

    0.0000000000    0.3584778196    0.0000000000

    0.0000000000    0.0000000000    0.3584778196

 RECIP-CONVVEC
    0.3584778196    0.0000000000    0.0000000000

    0.0000000000    0.3584778196    0.0000000000

    0.0000000000    0.0000000000    0.3584778196

 WIGNER-SEITZ-PRIMCELL
           4
 -0.1394786E+01 -0.1394786E+01  0.1394786E+01  -0.1000000E+01  0.0000000E+00  0.0000000E+00
 -0.1394786E+01  0.1394786E+01  0.1394786E+01  -0.1000000E+01  0.0000000E+00  0.0000000E+00
 -0.1394786E+01  0.1394786E+01 -0.1394786E+01  -0.1000000E+01  0.0000000E+00  0.0000000E+00
 -0.1394786E+01 -0.1394786E+01 -0.1394786E+01  -0.1000000E+01  0.0000000E+00  0.0000000E+00
           4
 -0.1394786E+01 -0.1394786E+01 -0.1394786E+01  -0.0000000E+00 -0.1000000E+01 -0.0000000E+00
  0.1394786E+01 -0.1394786E+01 -0.1394786E+01  -0.0000000E+00 -0.1000000E+01 -0.0000000E+00
  0.1394786E+01 -0.1394786E+01  0.1394786E+01  -0.0000000E+00 -0.1000000E+01 -0.0000000E+00
 -0.1394786E+01 -0.1394786E+01  0.1394786E+01  -0.0000000E+00 -0.1000000E+01 -0.0000000E+00
           4
 -0.1394786E+01  0.1394786E+01 -0.1394786E+01   0.0000000E+00  0.0000000E+00 -0.1000000E+01
  0.1394786E+01  0.1394786E+01 -0.1394786E+01   0.0000000E+00  0.0000000E+00 -0.1000000E+01
  0.1394786E+01 -0.1394786E+01 -0.1394786E+01   0.0000000E+00  0.0000000E+00 -0.1000000E+01
 -0.1394786E+01 -0.1394786E+01 -0.1394786E+01   0.0000000E+00  0.0000000E+00 -0.1000000E+01
           4
  0.1394786E+01 -0.1394786E+01  0.1394786E+01  -0.5260534E-17 -0.0000000E+00  0.1000000E+01
  0.1394786E+01  0.1394786E+01  0.1394786E+01  -0.5260534E-17 -0.0000000E+00  0.1000000E+01
 -0.1394786E+01  0.1394786E+01  0.1394786E+01  -0.5260534E-17 -0.0000000E+00  0.1000000E+01
 -0.1394786E+01 -0.1394786E+01  0.1394786E+01  -0.5260534E-17 -0.0000000E+00  0.1000000E+01
           4
  0.1394786E+01  0.1394786E+01  0.1394786E+01   0.0000000E+00  0.1000000E+01  0.0000000E+00
  0.1394786E+01  0.1394786E+01 -0.1394786E+01   0.0000000E+00  0.1000000E+01  0.0000000E+00
 -0.1394786E+01  0.1394786E+01 -0.1394786E+01   0.0000000E+00  0.1000000E+01  0.0000000E+00
 -0.1394786E+01  0.1394786E+01  0.1394786E+01   0.0000000E+00  0.1000000E+01  0.0000000E+00
           4
  0.1394786E+01 -0.1394786E+01  0.1394786E+01   0.1000000E+01 -0.0000000E+00 -0.0000000E+00
  0.1394786E+01 -0.1394786E+01 -0.1394786E+01   0.1000000E+01 -0.0000000E+00 -0.0000000E+00
  0.1394786E+01  0.1394786E+01 -0.1394786E+01   0.1000000E+01 -0.0000000E+00 -0.0000000E+00
  0.1394786E+01  0.1394786E+01  0.1394786E+01   0.1000000E+01 -0.0000000E+00 -0.0000000E+00
 WIGNER-SEITZ-PRIMCELL_END
 WIGNER-SEITZ-CONVCELL
           4
 -0.1394786E+01 -0.1394786E+01  0.1394786E+01  -0.1000000E+01  0.0000000E+00  0.0000000E+00
 -0.1394786E+01  0.1394786E+01  0.1394786E+01  -0.1000000E+01  0.0000000E+00  0.0000000E+00
 -0.1394786E+01  0.1394786E+01 -0.1394786E+01  -0.1000000E+01  0.0000000E+00  0.0000000E+00
 -0.1394786E+01 -0.1394786E+01 -0.1394786E+01  -0.1000000E+01  0.0000000E+00  0.0000000E+00
           4
 -0.1394786E+01 -0.1394786E+01 -0.1394786E+01  -0.0000000E+00 -0.1000000E+01 -0.0000000E+00
  0.1394786E+01 -0.1394786E+01 -0.1394786E+01  -0.0000000E+00 -0.1000000E+01 -0.0000000E+00
  0.1394786E+01 -0.1394786E+01  0.1394786E+01  -0.0000000E+00 -0.1000000E+01 -0.0000000E+00
 -0.1394786E+01 -0.1394786E+01  0.1394786E+01  -0.0000000E+00 -0.1000000E+01 -0.0000000E+00
           4
 -0.1394786E+01  0.1394786E+01 -0.1394786E+01   0.0000000E+00  0.0000000E+00 -0.1000000E+01
  0.1394786E+01  0.1394786E+01 -0.1394786E+01   0.0000000E+00  0.0000000E+00 -0.1000000E+01
  0.1394786E+01 -0.1394786E+01 -0.1394786E+01   0.0000000E+00  0.0000000E+00 -0.1000000E+01
 -0.1394786E+01 -0.1394786E+01 -0.1394786E+01   0.0000000E+00  0.0000000E+00 -0.1000000E+01
           4
  0.1394786E+01 -0.1394786E+01  0.1394786E+01  -0.5260534E-17 -0.0000000E+00  0.1000000E+01
  0.1394786E+01  0.1394786E+01  0.1394786E+01  -0.5260534E-17 -0.0000000E+00  0.1000000E+01
 -0.1394786E+01  0.1394786E+01  0.1394786E+01  -0.5260534E-17 -0.0000000E+00  0.1000000E+01
 -0.1394786E+01 -0.1394786E+01  0.1394786E+01  -0.5260534E-17 -0.0000000E+00  0.1000000E+01
           4
  0.1394786E+01  0.1394786E+01  0.1394786E+01   0.0000000E+00  0.1000000E+01  0.0000000E+00
  0.1394786E+01  0.1394786E+01 -0.1394786E+01   0.0000000E+00  0.1000000E+01  0.0000000E+00
 -0.1394786E+01  0.1394786E+01 -0.1394786E+01   0.0000000E+00  0.1000000E+01  0.0000000E+00
 -0.1394786E+01  0.1394786E+01  0.1394786E+01   0.0000000E+00  0.1000000E+01  0.0000000E+00
           4
  0.1394786E+01 -0.1394786E+01  0.1394786E+01   0.1000000E+01 -0.0000000E+00 -0.0000000E+00
  0.1394786E+01 -0.1394786E+01 -0.1394786E+01   0.1000000E+01 -0.0000000E+00 -0.0000000E+00
  0.1394786E+01  0.1394786E+01 -0.1394786E+01   0.1000000E+01 -0.0000000E+00 -0.0000000E+00
  0.1394786E+01  0.1394786E+01  0.1394786E+01   0.1000000E+01 -0.0000000E+00 -0.0000000E+00
 WIGNER-SEITZ-CONVCELL_END
 BRILLOUIN-ZONE-PRIMCELL
           4
 -0.1792389E+00 -0.1792389E+00  0.1792389E+00  -0.1000000E+01 -0.7742620E-16  0.7742620E-16
 -0.1792389E+00  0.1792389E+00  0.1792389E+00  -0.1000000E+01 -0.7742620E-16  0.7742620E-16
 -0.1792389E+00  0.1792389E+00 -0.1792389E+00  -0.1000000E+01 -0.7742620E-16  0.7742620E-16
 -0.1792389E+00 -0.1792389E+00 -0.1792389E+00  -0.1000000E+01 -0.7742620E-16  0.7742620E-16
           4
 -0.1792389E+00 -0.1792389E+00 -0.1792389E+00  -0.0000000E+00 -0.1000000E+01 -0.3871310E-16
  0.1792389E+00 -0.1792389E+00 -0.1792389E+00  -0.0000000E+00 -0.1000000E+01 -0.3871310E-16
  0.1792389E+00 -0.1792389E+00  0.1792389E+00  -0.0000000E+00 -0.1000000E+01 -0.3871310E-16
 -0.1792389E+00 -0.1792389E+00  0.1792389E+00  -0.0000000E+00 -0.1000000E+01 -0.3871310E-16
           4
 -0.1792389E+00  0.1792389E+00 -0.1792389E+00   0.0000000E+00  0.3871310E-16 -0.1000000E+01
  0.1792389E+00  0.1792389E+00 -0.1792389E+00   0.0000000E+00  0.3871310E-16 -0.1000000E+01
  0.1792389E+00 -0.1792389E+00 -0.1792389E+00   0.0000000E+00  0.3871310E-16 -0.1000000E+01
 -0.1792389E+00 -0.1792389E+00 -0.1792389E+00   0.0000000E+00  0.3871310E-16 -0.1000000E+01
           4
  0.1792389E+00 -0.1792389E+00  0.1792389E+00  -0.1079930E-15 -0.1079930E-15  0.1000000E+01
  0.1792389E+00  0.1792389E+00  0.1792389E+00  -0.1079930E-15 -0.1079930E-15  0.1000000E+01
 -0.1792389E+00  0.1792389E+00  0.1792389E+00  -0.1079930E-15 -0.1079930E-15  0.1000000E+01
 -0.1792389E+00 -0.1792389E+00  0.1792389E+00  -0.1079930E-15 -0.1079930E-15  0.1000000E+01
           4
 -0.1792389E+00  0.1792389E+00  0.1792389E+00   0.0000000E+00  0.1000000E+01  0.2242053E-16
  0.1792389E+00  0.1792389E+00  0.1792389E+00   0.0000000E+00  0.1000000E+01  0.2242053E-16
  0.1792389E+00  0.1792389E+00 -0.1792389E+00   0.0000000E+00  0.1000000E+01  0.2242053E-16
 -0.1792389E+00  0.1792389E+00 -0.1792389E+00   0.0000000E+00  0.1000000E+01  0.2242053E-16
           4
  0.1792389E+00 -0.1792389E+00  0.1792389E+00   0.1000000E+01 -0.7742620E-16 -0.7742620E-16
  0.1792389E+00 -0.1792389E+00 -0.1792389E+00   0.1000000E+01 -0.7742620E-16 -0.7742620E-16
  0.1792389E+00  0.1792389E+00 -0.1792389E+00   0.1000000E+01 -0.7742620E-16 -0.7742620E-16
  0.1792389E+00  0.1792389E+00  0.1792389E+00   0.1000000E+01 -0.7742620E-16 -0.7742620E-16
 BRILLOUIN-ZONE-PRIMCELL_END
 BRILLOUIN-ZONE-CONVCELL
           4
 -0.1792389E+00 -0.1792389E+00  0.1792389E+00  -0.1000000E+01 -0.7742620E-16  0.7742620E-16
 -0.1792389E+00  0.1792389E+00  0.1792389E+00  -0.1000000E+01 -0.7742620E-16  0.7742620E-16
 -0.1792389E+00  0.1792389E+00 -0.1792389E+00  -0.1000000E+01 -0.7742620E-16  0.7742620E-16
 -0.1792389E+00 -0.1792389E+00 -0.1792389E+00  -0.1000000E+01 -0.7742620E-16  0.7742620E-16
           4
 -0.1792389E+00 -0.1792389E+00 -0.1792389E+00  -0.0000000E+00 -0.1000000E+01 -0.3871310E-16
  0.1792389E+00 -0.1792389E+00 -0.1792389E+00  -0.0000000E+00 -0.1000000E+01 -0.3871310E-16
  0.1792389E+00 -0.1792389E+00  0.1792389E+00  -0.0000000E+00 -0.1000000E+01 -0.3871310E-16
 -0.1792389E+00 -0.1792389E+00  0.1792389E+00  -0.0000000E+00 -0.1000000E+01 -0.3871310E-16
           4
 -0.1792389E+00  0.1792389E+00 -0.1792389E+00   0.0000000E+00  0.3871310E-16 -0.1000000E+01
  0.1792389E+00  0.1792389E+00 -0.1792389E+00   0.0000000E+00  0.3871310E-16 -0.1000000E+01
  0.1792389E+00 -0.1792389E+00 -0.1792389E+00   0.0000000E+00  0.3871310E-16 -0.1000000E+01
 -0.1792389E+00 -0.1792389E+00 -0.1792389E+00   0.0000000E+00  0.3871310E-16 -0.1000000E+01
           4
  0.1792389E+00 -0.1792389E+00  0.1792389E+00  -0.1079930E-15 -0.1079930E-15  0.1000000E+01
  0.1792389E+00  0.1792389E+00  0.1792389E+00  -0.1079930E-15 -0.1079930E-15  0.1000000E+01
 -0.1792389E+00  0.1792389E+00  0.1792389E+00  -0.1079930E-15 -0.1079930E-15  0.1000000E+01
 -0.1792389E+00 -0.1792389E+00  0.1792389E+00  -0.1079930E-15 -0.1079930E-15  0.1000000E+01
           4
 -0.1792389E+00  0.1792389E+00  0.1792389E+00   0.0000000E+00  0.1000000E+01  0.2242053E-16
  0.1792389E+00  0.1792389E+00  0.1792389E+00   0.0000000E+00  0.1000000E+01  0.2242053E-16
  0.1792389E+00  0.1792389E+00 -0.1792389E+00   0.0000000E+00  0.1000000E+01  0.2242053E-16
 -0.1792389E+00  0.1792389E+00 -0.1792389E+00   0.0000000E+00  0.1000000E+01  0.2242053E-16
           4
  0.1792389E+00 -0.1792389E+00  0.1792389E+00   0.1000000E+01 -0.7742620E-16 -0.7742620E-16
  0.1792389E+00 -0.1792389E+00 -0.1792389E+00   0.1000000E+01 -0.7742620E-16 -0.7742620E-16
  0.1792389E+00  0.1792389E+00 -0.1792389E+00   0.1000000E+01 -0.7742620E-16 -0.7742620E-16
  0.1792389E+00  0.1792389E+00  0.1792389E+00   0.1000000E+01 -0.7742620E-16 -0.7742620E-16
 BRILLOUIN-ZONE-CONVCELL_END
 ATOMS
   26    0.0000000000    0.0000000000    0.0000000000    0.0000000000    0.0000000000    0.0000000000
   26    1.3947864930    1.3947864930    1.3947864930    0.0000000000    0.0000000000    0.0000000000
   26    0.0000000000    0.0000000000    2.7895728700    0.0000000000    0.0000000000    0.0000000000
   26    0.0000000000    2.7895728700    0.0000000000    0.0000000000    0.0000000000    0.0000000000
   26    0.0000000000    2.7895728700    2.7895728700    0.0000000000    0.0000000000    0.0000000000
   26    2.7895728700    0.0000000000    0.0000000000    0.0000000000    0.0000000000    0.0000000000
   26    2.7895728700    0.0000000000    2.7895728700    0.0000000000    0.0000000000    0.0000000000
   26    2.7895728700    2.7895728700    0.0000000000    0.0000000000    0.0000000000    0.0000000000
   26    2.7895728700    2.7895728700    2.7895728700    0.0000000000    0.0000000000    0.0000000000
 FRAMES
1      0.0000000000    0.0000000000    0.0000000000      2.7895728700    0.0000000000    0.0000000000
1      0.0000000000    0.0000000000    0.0000000000      0.0000000000    2.7895728700    0.0000000000
1      0.0000000000    0.0000000000    0.0000000000      0.0000000000    0.0000000000    2.7895728700
1      0.0000000000    0.0000000000    2.7895728700      2.7895728700    0.0000000000    2.7895728700
1      0.0000000000    0.0000000000    2.7895728700      0.0000000000    2.7895728700    2.7895728700
1      0.0000000000    2.7895728700    0.0000000000      2.7895728700    2.7895728700    0.0000000000
1      0.0000000000    2.7895728700    0.0000000000      0.0000000000    2.7895728700    2.7895728700
1      0.0000000000    2.7895728700    2.7895728700      2.7895728700    2.7895728700    2.7895728700
1      2.7895728700    0.0000000000    0.0000000000      2.7895728700    2.7895728700    0.0000000000
1      2.7895728700    0.0000000000    0.0000000000      2.7895728700    0.0000000000    2.7895728700
1      2.7895728700    0.0000000000    2.7895728700      2.7895728700    2.7895728700    2.7895728700
1      2.7895728700    2.7895728700    0.0000000000      2.7895728700    2.7895728700    2.7895728700
