 INFO
nunit      1    1    1
unit   cell
celltype   primcell
shape   parapipedal
 END_INFO
 DIM-GROUP
           3           1
 PRIMVEC
    2.7284327470    0.0000000000    0.0000000000
    0.0000000000    2.7284327470    0.0000000000
    0.0000000000    0.0000000000    2.7284327470
 CONVVEC
    2.7284327470    0.0000000000    0.0000000000
    0.0000000000    2.7284327470    0.0000000000
    0.0000000000    0.0000000000    2.7284327470
 PRIMCOORD
           2           1
 26      0.0000000000     0.0000000000     0.0000000000     0.0000000000     0.0000000000     0.0000000000
 26      1.3642163660     1.3642163660     1.3642163660     0.0000000000     0.0000000000     0.0000000000
 CONVCOORD
           2           1
 26      0.0000000000     0.0000000000     0.0000000000
 26      1.3642163660     1.3642163660     1.3642163660
 RECIP-PRIMVEC
    0.3665107748    0.0000000000    0.0000000000

    0.0000000000    0.3665107748    0.0000000000

    0.0000000000    0.0000000000    0.3665107748

 RECIP-CONVVEC
    0.3665107748    0.0000000000    0.0000000000

    0.0000000000    0.3665107748    0.0000000000

    0.0000000000    0.0000000000    0.3665107748

 WIGNER-SEITZ-PRIMCELL
           4
 -0.1364216E+01 -0.1364216E+01  0.1364216E+01  -0.1000000E+01  0.0000000E+00  0.0000000E+00
 -0.1364216E+01  0.1364216E+01  0.1364216E+01  -0.1000000E+01  0.0000000E+00  0.0000000E+00
 -0.1364216E+01  0.1364216E+01 -0.1364216E+01  -0.1000000E+01  0.0000000E+00  0.0000000E+00
 -0.1364216E+01 -0.1364216E+01 -0.1364216E+01  -0.1000000E+01  0.0000000E+00  0.0000000E+00
           4
 -0.1364216E+01 -0.1364216E+01 -0.1364216E+01  -0.0000000E+00 -0.1000000E+01 -0.0000000E+00
  0.1364216E+01 -0.1364216E+01 -0.1364216E+01  -0.0000000E+00 -0.1000000E+01 -0.0000000E+00
  0.1364216E+01 -0.1364216E+01  0.1364216E+01  -0.0000000E+00 -0.1000000E+01 -0.0000000E+00
 -0.1364216E+01 -0.1364216E+01  0.1364216E+01  -0.0000000E+00 -0.1000000E+01 -0.0000000E+00
           4
 -0.1364216E+01  0.1364216E+01 -0.1364216E+01   0.0000000E+00  0.0000000E+00 -0.1000000E+01
  0.1364216E+01  0.1364216E+01 -0.1364216E+01   0.0000000E+00  0.0000000E+00 -0.1000000E+01
  0.1364216E+01 -0.1364216E+01 -0.1364216E+01   0.0000000E+00  0.0000000E+00 -0.1000000E+01
 -0.1364216E+01 -0.1364216E+01 -0.1364216E+01   0.0000000E+00  0.0000000E+00 -0.1000000E+01
           4
 -0.1364216E+01 -0.1364216E+01  0.1364216E+01  -0.0000000E+00 -0.0000000E+00  0.1000000E+01
  0.1364216E+01 -0.1364216E+01  0.1364216E+01  -0.0000000E+00 -0.0000000E+00  0.1000000E+01
  0.1364216E+01  0.1364216E+01  0.1364216E+01  -0.0000000E+00 -0.0000000E+00  0.1000000E+01
 -0.1364216E+01  0.1364216E+01  0.1364216E+01  -0.0000000E+00 -0.0000000E+00  0.1000000E+01
           4
 -0.1364216E+01  0.1364216E+01  0.1364216E+01   0.0000000E+00  0.1000000E+01  0.0000000E+00
  0.1364216E+01  0.1364216E+01  0.1364216E+01   0.0000000E+00  0.1000000E+01  0.0000000E+00
  0.1364216E+01  0.1364216E+01 -0.1364216E+01   0.0000000E+00  0.1000000E+01  0.0000000E+00
 -0.1364216E+01  0.1364216E+01 -0.1364216E+01   0.0000000E+00  0.1000000E+01  0.0000000E+00
           4
  0.1364216E+01 -0.1364216E+01 -0.1364216E+01   0.1000000E+01 -0.0000000E+00 -0.0000000E+00
  0.1364216E+01  0.1364216E+01 -0.1364216E+01   0.1000000E+01 -0.0000000E+00 -0.0000000E+00
  0.1364216E+01  0.1364216E+01  0.1364216E+01   0.1000000E+01 -0.0000000E+00 -0.0000000E+00
  0.1364216E+01 -0.1364216E+01  0.1364216E+01   0.1000000E+01 -0.0000000E+00 -0.0000000E+00
 WIGNER-SEITZ-PRIMCELL_END
 WIGNER-SEITZ-CONVCELL
           4
 -0.1364216E+01 -0.1364216E+01  0.1364216E+01  -0.1000000E+01  0.0000000E+00  0.0000000E+00
 -0.1364216E+01  0.1364216E+01  0.1364216E+01  -0.1000000E+01  0.0000000E+00  0.0000000E+00
 -0.1364216E+01  0.1364216E+01 -0.1364216E+01  -0.1000000E+01  0.0000000E+00  0.0000000E+00
 -0.1364216E+01 -0.1364216E+01 -0.1364216E+01  -0.1000000E+01  0.0000000E+00  0.0000000E+00
           4
 -0.1364216E+01 -0.1364216E+01 -0.1364216E+01  -0.0000000E+00 -0.1000000E+01 -0.0000000E+00
  0.1364216E+01 -0.1364216E+01 -0.1364216E+01  -0.0000000E+00 -0.1000000E+01 -0.0000000E+00
  0.1364216E+01 -0.1364216E+01  0.1364216E+01  -0.0000000E+00 -0.1000000E+01 -0.0000000E+00
 -0.1364216E+01 -0.1364216E+01  0.1364216E+01  -0.0000000E+00 -0.1000000E+01 -0.0000000E+00
           4
 -0.1364216E+01  0.1364216E+01 -0.1364216E+01   0.0000000E+00  0.0000000E+00 -0.1000000E+01
  0.1364216E+01  0.1364216E+01 -0.1364216E+01   0.0000000E+00  0.0000000E+00 -0.1000000E+01
  0.1364216E+01 -0.1364216E+01 -0.1364216E+01   0.0000000E+00  0.0000000E+00 -0.1000000E+01
 -0.1364216E+01 -0.1364216E+01 -0.1364216E+01   0.0000000E+00  0.0000000E+00 -0.1000000E+01
           4
 -0.1364216E+01 -0.1364216E+01  0.1364216E+01  -0.0000000E+00 -0.0000000E+00  0.1000000E+01
  0.1364216E+01 -0.1364216E+01  0.1364216E+01  -0.0000000E+00 -0.0000000E+00  0.1000000E+01
  0.1364216E+01  0.1364216E+01  0.1364216E+01  -0.0000000E+00 -0.0000000E+00  0.1000000E+01
 -0.1364216E+01  0.1364216E+01  0.1364216E+01  -0.0000000E+00 -0.0000000E+00  0.1000000E+01
           4
 -0.1364216E+01  0.1364216E+01  0.1364216E+01   0.0000000E+00  0.1000000E+01  0.0000000E+00
  0.1364216E+01  0.1364216E+01  0.1364216E+01   0.0000000E+00  0.1000000E+01  0.0000000E+00
  0.1364216E+01  0.1364216E+01 -0.1364216E+01   0.0000000E+00  0.1000000E+01  0.0000000E+00
 -0.1364216E+01  0.1364216E+01 -0.1364216E+01   0.0000000E+00  0.1000000E+01  0.0000000E+00
           4
  0.1364216E+01 -0.1364216E+01 -0.1364216E+01   0.1000000E+01 -0.0000000E+00 -0.0000000E+00
  0.1364216E+01  0.1364216E+01 -0.1364216E+01   0.1000000E+01 -0.0000000E+00 -0.0000000E+00
  0.1364216E+01  0.1364216E+01  0.1364216E+01   0.1000000E+01 -0.0000000E+00 -0.0000000E+00
  0.1364216E+01 -0.1364216E+01  0.1364216E+01   0.1000000E+01 -0.0000000E+00 -0.0000000E+00
 WIGNER-SEITZ-CONVCELL_END
 BRILLOUIN-ZONE-PRIMCELL
           4
 -0.1832554E+00 -0.1832554E+00  0.1832554E+00  -0.1000000E+01  0.0000000E+00  0.0000000E+00
 -0.1832554E+00  0.1832554E+00  0.1832554E+00  -0.1000000E+01  0.0000000E+00  0.0000000E+00
 -0.1832554E+00  0.1832554E+00 -0.1832554E+00  -0.1000000E+01  0.0000000E+00  0.0000000E+00
 -0.1832554E+00 -0.1832554E+00 -0.1832554E+00  -0.1000000E+01  0.0000000E+00  0.0000000E+00
           4
 -0.1832554E+00 -0.1832554E+00 -0.1832554E+00  -0.0000000E+00 -0.1000000E+01 -0.0000000E+00
  0.1832554E+00 -0.1832554E+00 -0.1832554E+00  -0.0000000E+00 -0.1000000E+01 -0.0000000E+00
  0.1832554E+00 -0.1832554E+00  0.1832554E+00  -0.0000000E+00 -0.1000000E+01 -0.0000000E+00
 -0.1832554E+00 -0.1832554E+00  0.1832554E+00  -0.0000000E+00 -0.1000000E+01 -0.0000000E+00
           4
 -0.1832554E+00  0.1832554E+00 -0.1832554E+00   0.0000000E+00  0.0000000E+00 -0.1000000E+01
  0.1832554E+00  0.1832554E+00 -0.1832554E+00   0.0000000E+00  0.0000000E+00 -0.1000000E+01
  0.1832554E+00 -0.1832554E+00 -0.1832554E+00   0.0000000E+00  0.0000000E+00 -0.1000000E+01
 -0.1832554E+00 -0.1832554E+00 -0.1832554E+00   0.0000000E+00  0.0000000E+00 -0.1000000E+01
           4
  0.1832554E+00 -0.1832554E+00  0.1832554E+00  -0.0000000E+00 -0.0000000E+00  0.1000000E+01
  0.1832554E+00  0.1832554E+00  0.1832554E+00  -0.0000000E+00 -0.0000000E+00  0.1000000E+01
 -0.1832554E+00  0.1832554E+00  0.1832554E+00  -0.0000000E+00 -0.0000000E+00  0.1000000E+01
 -0.1832554E+00 -0.1832554E+00  0.1832554E+00  -0.0000000E+00 -0.0000000E+00  0.1000000E+01
           4
 -0.1832554E+00  0.1832554E+00  0.1832554E+00   0.0000000E+00  0.1000000E+01  0.0000000E+00
  0.1832554E+00  0.1832554E+00  0.1832554E+00   0.0000000E+00  0.1000000E+01  0.0000000E+00
  0.1832554E+00  0.1832554E+00 -0.1832554E+00   0.0000000E+00  0.1000000E+01  0.0000000E+00
 -0.1832554E+00  0.1832554E+00 -0.1832554E+00   0.0000000E+00  0.1000000E+01  0.0000000E+00
           4
  0.1832554E+00 -0.1832554E+00  0.1832554E+00   0.1000000E+01 -0.0000000E+00 -0.0000000E+00
  0.1832554E+00 -0.1832554E+00 -0.1832554E+00   0.1000000E+01 -0.0000000E+00 -0.0000000E+00
  0.1832554E+00  0.1832554E+00 -0.1832554E+00   0.1000000E+01 -0.0000000E+00 -0.0000000E+00
  0.1832554E+00  0.1832554E+00  0.1832554E+00   0.1000000E+01 -0.0000000E+00 -0.0000000E+00
 BRILLOUIN-ZONE-PRIMCELL_END
 BRILLOUIN-ZONE-CONVCELL
           4
 -0.1832554E+00 -0.1832554E+00  0.1832554E+00  -0.1000000E+01  0.0000000E+00  0.0000000E+00
 -0.1832554E+00  0.1832554E+00  0.1832554E+00  -0.1000000E+01  0.0000000E+00  0.0000000E+00
 -0.1832554E+00  0.1832554E+00 -0.1832554E+00  -0.1000000E+01  0.0000000E+00  0.0000000E+00
 -0.1832554E+00 -0.1832554E+00 -0.1832554E+00  -0.1000000E+01  0.0000000E+00  0.0000000E+00
           4
 -0.1832554E+00 -0.1832554E+00 -0.1832554E+00  -0.0000000E+00 -0.1000000E+01 -0.0000000E+00
  0.1832554E+00 -0.1832554E+00 -0.1832554E+00  -0.0000000E+00 -0.1000000E+01 -0.0000000E+00
  0.1832554E+00 -0.1832554E+00  0.1832554E+00  -0.0000000E+00 -0.1000000E+01 -0.0000000E+00
 -0.1832554E+00 -0.1832554E+00  0.1832554E+00  -0.0000000E+00 -0.1000000E+01 -0.0000000E+00
           4
 -0.1832554E+00  0.1832554E+00 -0.1832554E+00   0.0000000E+00  0.0000000E+00 -0.1000000E+01
  0.1832554E+00  0.1832554E+00 -0.1832554E+00   0.0000000E+00  0.0000000E+00 -0.1000000E+01
  0.1832554E+00 -0.1832554E+00 -0.1832554E+00   0.0000000E+00  0.0000000E+00 -0.1000000E+01
 -0.1832554E+00 -0.1832554E+00 -0.1832554E+00   0.0000000E+00  0.0000000E+00 -0.1000000E+01
           4
  0.1832554E+00 -0.1832554E+00  0.1832554E+00  -0.0000000E+00 -0.0000000E+00  0.1000000E+01
  0.1832554E+00  0.1832554E+00  0.1832554E+00  -0.0000000E+00 -0.0000000E+00  0.1000000E+01
 -0.1832554E+00  0.1832554E+00  0.1832554E+00  -0.0000000E+00 -0.0000000E+00  0.1000000E+01
 -0.1832554E+00 -0.1832554E+00  0.1832554E+00  -0.0000000E+00 -0.0000000E+00  0.1000000E+01
           4
 -0.1832554E+00  0.1832554E+00  0.1832554E+00   0.0000000E+00  0.1000000E+01  0.0000000E+00
  0.1832554E+00  0.1832554E+00  0.1832554E+00   0.0000000E+00  0.1000000E+01  0.0000000E+00
  0.1832554E+00  0.1832554E+00 -0.1832554E+00   0.0000000E+00  0.1000000E+01  0.0000000E+00
 -0.1832554E+00  0.1832554E+00 -0.1832554E+00   0.0000000E+00  0.1000000E+01  0.0000000E+00
           4
  0.1832554E+00 -0.1832554E+00  0.1832554E+00   0.1000000E+01 -0.0000000E+00 -0.0000000E+00
  0.1832554E+00 -0.1832554E+00 -0.1832554E+00   0.1000000E+01 -0.0000000E+00 -0.0000000E+00
  0.1832554E+00  0.1832554E+00 -0.1832554E+00   0.1000000E+01 -0.0000000E+00 -0.0000000E+00
  0.1832554E+00  0.1832554E+00  0.1832554E+00   0.1000000E+01 -0.0000000E+00 -0.0000000E+00
 BRILLOUIN-ZONE-CONVCELL_END
 ATOMS
   26    0.0000000000    0.0000000000    0.0000000000    0.0000000000    0.0000000000    0.0000000000
   26    1.3642163660    1.3642163660    1.3642163660    0.0000000000    0.0000000000    0.0000000000
   26    0.0000000000    0.0000000000    2.7284327470    0.0000000000    0.0000000000    0.0000000000
   26    0.0000000000    2.7284327470    0.0000000000    0.0000000000    0.0000000000    0.0000000000
   26    0.0000000000    2.7284327470    2.7284327470    0.0000000000    0.0000000000    0.0000000000
   26    2.7284327470    0.0000000000    0.0000000000    0.0000000000    0.0000000000    0.0000000000
   26    2.7284327470    0.0000000000    2.7284327470    0.0000000000    0.0000000000    0.0000000000
   26    2.7284327470    2.7284327470    0.0000000000    0.0000000000    0.0000000000    0.0000000000
   26    2.7284327470    2.7284327470    2.7284327470    0.0000000000    0.0000000000    0.0000000000
 FRAMES
1      0.0000000000    0.0000000000    0.0000000000      2.7284327470    0.0000000000    0.0000000000
1      0.0000000000    0.0000000000    0.0000000000      0.0000000000    2.7284327470    0.0000000000
1      0.0000000000    0.0000000000    0.0000000000      0.0000000000    0.0000000000    2.7284327470
1      0.0000000000    0.0000000000    2.7284327470      2.7284327470    0.0000000000    2.7284327470
1      0.0000000000    0.0000000000    2.7284327470      0.0000000000    2.7284327470    2.7284327470
1      0.0000000000    2.7284327470    0.0000000000      2.7284327470    2.7284327470    0.0000000000
1      0.0000000000    2.7284327470    0.0000000000      0.0000000000    2.7284327470    2.7284327470
1      0.0000000000    2.7284327470    2.7284327470      2.7284327470    2.7284327470    2.7284327470
1      2.7284327470    0.0000000000    0.0000000000      2.7284327470    2.7284327470    0.0000000000
1      2.7284327470    0.0000000000    0.0000000000      2.7284327470    0.0000000000    2.7284327470
1      2.7284327470    0.0000000000    2.7284327470      2.7284327470    2.7284327470    2.7284327470
1      2.7284327470    2.7284327470    0.0000000000      2.7284327470    2.7284327470    2.7284327470
