
     Program PWSCF v.7.3.1 starts on 23Dec2024 at 20:44:10 

     This program is part of the open-source Quantum ESPRESSO suite
     for quantum simulation of materials; please cite
         "P. Giannozzi et al., J. Phys.:Condens. Matter 21 395502 (2009);
         "P. Giannozzi et al., J. Phys.:Condens. Matter 29 465901 (2017);
         "P. Giannozzi et al., J. Chem. Phys. 152 154105 (2020);
          URL http://www.quantum-espresso.org", 
     in publications or presentations arising from this work. More details at
     http://www.quantum-espresso.org/quote

     Parallel version (MPI), running on     4 processors

     MPI processes distributed on     1 nodes
     12085 MiB available memory on the printing compute node when the environment starts

     Reading input from vc_relax_FM.in

     Current dimensions of program PWSCF are:
     Max number of different atomic species (ntypx) = 10
     Max number of k-points (npk) =  40000
     Max angular momentum in pseudopotentials (lmaxx) =  4
     file Fe.pbesol-spn-kjpaw_psl.1.0.0.UPF: wavefunction(s)  3P 3D renormalized
     file Fe.pbesol-spn-kjpaw_psl.1.0.0.UPF: wavefunction(s)  3P 3D renormalized
     Found identity + ( -0.5000 -0.5000 -0.5000) symmetry
     This is a supercell, fractional translations are disabled

     R & G space division:  proc/nbgrp/npool/nimage =       4
     Subspace diagonalization in iterative solution of the eigenvalue problem:
     a serial algorithm will be used


     Parallelization info
     --------------------
     sticks:   dense  smooth     PW     G-vecs:    dense   smooth      PW
     Min         234     118     36                 5341     1880     338
     Max         236     119     37                 5342     1881     341
     Sum         941     473    145                21367     7521    1357

     Using Slab Decomposition



     bravais-lattice index     =            1
     lattice parameter (alat)  =       5.4104  a.u.
     unit-cell volume          =     158.3714 (a.u.)^3
     number of atoms/cell      =            2
     number of atomic types    =            2
     number of electrons       =        32.00
     number of Kohn-Sham states=           20
     kinetic-energy cutoff     =      50.0000  Ry
     charge density cutoff     =     400.0000  Ry
     scf convergence threshold =      1.0E-08
     mixing beta               =       0.7000
     number of iterations used =            8  plain     mixing
     energy convergence thresh.=      1.0E-05
     force convergence thresh. =      1.0E-04
     press convergence thresh. =      5.0E-01
     Exchange-correlation= SLA  PW   PSX  PSC
                           (   1   4  10   8   0   0   0)
     nstep                     =           50


     celldm(1)=   5.410353  celldm(2)=   0.000000  celldm(3)=   0.000000
     celldm(4)=   0.000000  celldm(5)=   0.000000  celldm(6)=   0.000000

     crystal axes: (cart. coord. in units of alat)
               a(1) = (   1.000000   0.000000   0.000000 )  
               a(2) = (   0.000000   1.000000   0.000000 )  
               a(3) = (   0.000000   0.000000   1.000000 )  

     reciprocal axes: (cart. coord. in units 2 pi/alat)
               b(1) = (  1.000000  0.000000  0.000000 )  
               b(2) = (  0.000000  1.000000  0.000000 )  
               b(3) = (  0.000000  0.000000  1.000000 )  


     PseudoPot. # 1 for Fe read from file:
     ./../../pseudos/Fe.pbesol-spn-kjpaw_psl.1.0.0.UPF
     MD5 check sum: e30d5f36a6f0cb983ee41abee56170da
     Pseudo is Projector augmented-wave + core cor, Zval = 16.0
     Generated using &quot;atomic&quot; code by A. Dal Corso  v.6.3
     Shape of augmentation charge: PSQ
     Using radial grid of 1191 points,  6 beta functions with: 
                l(1) =   0
                l(2) =   0
                l(3) =   1
                l(4) =   1
                l(5) =   2
                l(6) =   2
     Q(r) pseudized with 0 coefficients 


     PseudoPot. # 2 for Fe read from file:
     ./../../pseudos/Fe.pbesol-spn-kjpaw_psl.1.0.0.UPF
     MD5 check sum: e30d5f36a6f0cb983ee41abee56170da
     Pseudo is Projector augmented-wave + core cor, Zval = 16.0
     Generated using &quot;atomic&quot; code by A. Dal Corso  v.6.3
     Shape of augmentation charge: PSQ
     Using radial grid of 1191 points,  6 beta functions with: 
                l(1) =   0
                l(2) =   0
                l(3) =   1
                l(4) =   1
                l(5) =   2
                l(6) =   2
     Q(r) pseudized with 0 coefficients 


     atomic species   valence    mass     pseudopotential
     Fe1              16.00    55.84500     Fe( 1.00)
     Fe2              16.00    55.84500     Fe( 1.00)

     Starting magnetic structure 
     atomic species   magnetization
     Fe1             0.300
     Fe2             0.300

     48 Sym. Ops., with inversion, found



   Cartesian axes

     site n.     atom                  positions (alat units)
         1        Fe1    tau(   1) = (   0.0000000   0.0000000   0.0000000  )
         2        Fe1    tau(   2) = (   0.5000000   0.5000000   0.5000000  )

     number of k points=    56  Gaussian smearing, width (Ry)=  0.0200
                       cart. coord. in units 2pi/alat
        k(    1) = (   0.0000000   0.0000000   0.0000000), wk =   0.0007513
        k(    2) = (   0.0000000   0.0000000   0.0909091), wk =   0.0045079
        k(    3) = (   0.0000000   0.0000000   0.1818182), wk =   0.0045079
        k(    4) = (   0.0000000   0.0000000   0.2727273), wk =   0.0045079
        k(    5) = (   0.0000000   0.0000000   0.3636364), wk =   0.0045079
        k(    6) = (   0.0000000   0.0000000   0.4545455), wk =   0.0045079
        k(    7) = (   0.0000000   0.0909091   0.0909091), wk =   0.0090158
        k(    8) = (   0.0000000   0.0909091   0.1818182), wk =   0.0180316
        k(    9) = (   0.0000000   0.0909091   0.2727273), wk =   0.0180316
        k(   10) = (   0.0000000   0.0909091   0.3636364), wk =   0.0180316
        k(   11) = (   0.0000000   0.0909091   0.4545455), wk =   0.0180316
        k(   12) = (   0.0000000   0.1818182   0.1818182), wk =   0.0090158
        k(   13) = (   0.0000000   0.1818182   0.2727273), wk =   0.0180316
        k(   14) = (   0.0000000   0.1818182   0.3636364), wk =   0.0180316
        k(   15) = (   0.0000000   0.1818182   0.4545455), wk =   0.0180316
        k(   16) = (   0.0000000   0.2727273   0.2727273), wk =   0.0090158
        k(   17) = (   0.0000000   0.2727273   0.3636364), wk =   0.0180316
        k(   18) = (   0.0000000   0.2727273   0.4545455), wk =   0.0180316
        k(   19) = (   0.0000000   0.3636364   0.3636364), wk =   0.0090158
        k(   20) = (   0.0000000   0.3636364   0.4545455), wk =   0.0180316
        k(   21) = (   0.0000000   0.4545455   0.4545455), wk =   0.0090158
        k(   22) = (   0.0909091   0.0909091   0.0909091), wk =   0.0060105
        k(   23) = (   0.0909091   0.0909091   0.1818182), wk =   0.0180316
        k(   24) = (   0.0909091   0.0909091   0.2727273), wk =   0.0180316
        k(   25) = (   0.0909091   0.0909091   0.3636364), wk =   0.0180316
        k(   26) = (   0.0909091   0.0909091   0.4545455), wk =   0.0180316
        k(   27) = (   0.0909091   0.1818182   0.1818182), wk =   0.0180316
        k(   28) = (   0.0909091   0.1818182   0.2727273), wk =   0.0360631
        k(   29) = (   0.0909091   0.1818182   0.3636364), wk =   0.0360631
        k(   30) = (   0.0909091   0.1818182   0.4545455), wk =   0.0360631
        k(   31) = (   0.0909091   0.2727273   0.2727273), wk =   0.0180316
        k(   32) = (   0.0909091   0.2727273   0.3636364), wk =   0.0360631
        k(   33) = (   0.0909091   0.2727273   0.4545455), wk =   0.0360631
        k(   34) = (   0.0909091   0.3636364   0.3636364), wk =   0.0180316
        k(   35) = (   0.0909091   0.3636364   0.4545455), wk =   0.0360631
        k(   36) = (   0.0909091   0.4545455   0.4545455), wk =   0.0180316
        k(   37) = (   0.1818182   0.1818182   0.1818182), wk =   0.0060105
        k(   38) = (   0.1818182   0.1818182   0.2727273), wk =   0.0180316
        k(   39) = (   0.1818182   0.1818182   0.3636364), wk =   0.0180316
        k(   40) = (   0.1818182   0.1818182   0.4545455), wk =   0.0180316
        k(   41) = (   0.1818182   0.2727273   0.2727273), wk =   0.0180316
        k(   42) = (   0.1818182   0.2727273   0.3636364), wk =   0.0360631
        k(   43) = (   0.1818182   0.2727273   0.4545455), wk =   0.0360631
        k(   44) = (   0.1818182   0.3636364   0.3636364), wk =   0.0180316
        k(   45) = (   0.1818182   0.3636364   0.4545455), wk =   0.0360631
        k(   46) = (   0.1818182   0.4545455   0.4545455), wk =   0.0180316
        k(   47) = (   0.2727273   0.2727273   0.2727273), wk =   0.0060105
        k(   48) = (   0.2727273   0.2727273   0.3636364), wk =   0.0180316
        k(   49) = (   0.2727273   0.2727273   0.4545455), wk =   0.0180316
        k(   50) = (   0.2727273   0.3636364   0.3636364), wk =   0.0180316
        k(   51) = (   0.2727273   0.3636364   0.4545455), wk =   0.0360631
        k(   52) = (   0.2727273   0.4545455   0.4545455), wk =   0.0180316
        k(   53) = (   0.3636364   0.3636364   0.3636364), wk =   0.0060105
        k(   54) = (   0.3636364   0.3636364   0.4545455), wk =   0.0180316
        k(   55) = (   0.3636364   0.4545455   0.4545455), wk =   0.0180316
        k(   56) = (   0.4545455   0.4545455   0.4545455), wk =   0.0060105

     Dense  grid:    21367 G-vectors     FFT dimensions: (  36,  36,  36)

     Smooth grid:     7521 G-vectors     FFT dimensions: (  25,  25,  25)

     Estimated max dynamical RAM per process >      36.43 MB

     Estimated total dynamical RAM >     145.72 MB

     Check: negative core charge=   -0.000006
     Generating pointlists ...
     new r_m :   0.3572 (alat units)  1.9328 (a.u.) for type    1
     new r_m :   0.4125 (alat units)  2.2318 (a.u.) for type    2

     Initial potential from superposition of free atoms

     starting charge      31.9992, renormalised to      32.0000
     Starting wfcs are   20 randomized atomic wfcs
     Checking if some PAW data can be deallocated... 

     total cpu time spent up to now is        1.3 secs

     Self-consistent Calculation

     iteration #  1     ecut=    50.00 Ry     beta= 0.70
     Davidson diagonalization with overlap
     ethr =  1.00E-02,  avg # of iterations =  3.4

     Threshold (ethr) on eigenvalues was too large:
     Diagonalizing with lowered threshold

     Davidson diagonalization with overlap
     ethr =  6.13E-04,  avg # of iterations =  1.6

     negative rho (up, down):  0.000E+00 2.445E-04

     total cpu time spent up to now is        3.9 secs

     total energy              =    -653.72807847 Ry
     estimated scf accuracy    <       0.20438946 Ry

     total magnetization       =     5.86 Bohr mag/cell
     absolute magnetization    =     5.91 Bohr mag/cell

     iteration #  2     ecut=    50.00 Ry     beta= 0.70
     Davidson diagonalization with overlap
     ethr =  6.39E-04,  avg # of iterations =  2.1

     negative rho (up, down):  0.000E+00 3.613E-04

     total cpu time spent up to now is        5.2 secs

     total energy              =    -653.74844470 Ry
     estimated scf accuracy    <       0.07772884 Ry

     total magnetization       =     5.34 Bohr mag/cell
     absolute magnetization    =     5.50 Bohr mag/cell

     iteration #  3     ecut=    50.00 Ry     beta= 0.70
     Davidson diagonalization with overlap
     ethr =  2.43E-04,  avg # of iterations =  3.2

     negative rho (up, down):  0.000E+00 6.193E-04

     total cpu time spent up to now is        6.9 secs

     total energy              =    -653.76993247 Ry
     estimated scf accuracy    <       0.08068561 Ry

     total magnetization       =     4.97 Bohr mag/cell
     absolute magnetization    =     5.18 Bohr mag/cell

     iteration #  4     ecut=    50.00 Ry     beta= 0.70
     Davidson diagonalization with overlap
     ethr =  2.43E-04,  avg # of iterations =  2.2

     negative rho (up, down):  0.000E+00 6.079E-04

     total cpu time spent up to now is        8.3 secs

     total energy              =    -653.78062663 Ry
     estimated scf accuracy    <       0.03497141 Ry

     total magnetization       =     4.64 Bohr mag/cell
     absolute magnetization    =     4.88 Bohr mag/cell

     iteration #  5     ecut=    50.00 Ry     beta= 0.70
     Davidson diagonalization with overlap
     ethr =  1.09E-04,  avg # of iterations =  1.1

     negative rho (up, down):  0.000E+00 2.977E-04

     total cpu time spent up to now is        9.4 secs

     total energy              =    -653.78335921 Ry
     estimated scf accuracy    <       0.00391876 Ry

     total magnetization       =     4.64 Bohr mag/cell
     absolute magnetization    =     4.88 Bohr mag/cell

     iteration #  6     ecut=    50.00 Ry     beta= 0.70
     Davidson diagonalization with overlap
     ethr =  1.22E-05,  avg # of iterations =  1.9

     negative rho (up, down):  0.000E+00 3.092E-04

     total cpu time spent up to now is       10.7 secs

     total energy              =    -653.78492640 Ry
     estimated scf accuracy    <       0.00019230 Ry

     total magnetization       =     4.45 Bohr mag/cell
     absolute magnetization    =     4.67 Bohr mag/cell

     iteration #  7     ecut=    50.00 Ry     beta= 0.70
     Davidson diagonalization with overlap
     ethr =  6.01E-07,  avg # of iterations =  2.3

     negative rho (up, down):  0.000E+00 3.002E-04

     total cpu time spent up to now is       12.2 secs

     total energy              =    -653.78499152 Ry
     estimated scf accuracy    <       0.00000768 Ry

     total magnetization       =     4.46 Bohr mag/cell
     absolute magnetization    =     4.68 Bohr mag/cell

     iteration #  8     ecut=    50.00 Ry     beta= 0.70
     Davidson diagonalization with overlap
     ethr =  2.40E-08,  avg # of iterations =  3.2

     negative rho (up, down):  0.000E+00 2.991E-04

     total cpu time spent up to now is       13.9 secs

     total energy              =    -653.78499790 Ry
     estimated scf accuracy    <       0.00000540 Ry

     total magnetization       =     4.45 Bohr mag/cell
     absolute magnetization    =     4.66 Bohr mag/cell

     iteration #  9     ecut=    50.00 Ry     beta= 0.70
     Davidson diagonalization with overlap
     ethr =  1.69E-08,  avg # of iterations =  2.7

     negative rho (up, down):  0.000E+00 2.982E-04

     total cpu time spent up to now is       15.3 secs

     total energy              =    -653.78499966 Ry
     estimated scf accuracy    <       0.00000030 Ry

     total magnetization       =     4.45 Bohr mag/cell
     absolute magnetization    =     4.66 Bohr mag/cell

     iteration # 10     ecut=    50.00 Ry     beta= 0.70
     Davidson diagonalization with overlap
     ethr =  9.51E-10,  avg # of iterations =  2.0

     negative rho (up, down):  0.000E+00 2.982E-04

     Magnetic moment per site  (integrated on atomic sphere of radius R)
     atom   1 (R=0.357)  charge= 14.4156  magn=  2.2656
     atom   2 (R=0.357)  charge= 14.4155  magn=  2.2655

     total cpu time spent up to now is       16.8 secs

     End of self-consistent calculation

     Number of k-points >= 100: set verbosity='high' to print the bands.

     the Fermi energy is    17.4248 ev

!    total energy              =    -653.78499973 Ry
     total all-electron energy =     -5086.436418 Ry
     estimated scf accuracy    <          2.9E-09 Ry
     smearing contrib. (-TS)   =      -0.00539694 Ry
     internal energy E=F+TS    =    -653.77960279 Ry

     The total energy is F=E-TS. E is the sum of the following terms:
     one-electron contribution =    -224.89163641 Ry
     hartree contribution      =     131.74928634 Ry
     xc contribution           =     -54.81412141 Ry
     ewald contribution        =    -344.39297617 Ry
     one-center paw contrib.   =    -161.43015514 Ry

     total magnetization       =     4.45 Bohr mag/cell
     absolute magnetization    =     4.66 Bohr mag/cell

     convergence has been achieved in  10 iterations

     negative rho (up, down):  0.000E+00 2.982E-04

     Forces acting on atoms (cartesian axes, Ry/au):

     atom    1 type  1   force =     0.00000000    0.00000000    0.00000000
     atom    2 type  1   force =     0.00000000    0.00000000    0.00000000

     Total force =     0.000000     Total SCF correction =     0.000000


     Computing stress (Cartesian axis) and pressure


     negative rho (up, down):  0.000E+00 2.982E-04
          total   stress  (Ry/bohr**3)                   (kbar)     P=     -370.17
  -0.00251637   0.00000000   0.00000000         -370.17        0.00        0.00
   0.00000000  -0.00251637   0.00000000            0.00     -370.17        0.00
   0.00000000   0.00000000  -0.00251637            0.00        0.00     -370.17


     BFGS Geometry Optimization
     Energy error            =      0.0E+00 Ry
     Gradient error          =      0.0E+00 Ry/Bohr
     Cell gradient error     =      3.7E+02 kbar

     number of scf cycles    =   1
     number of bfgs steps    =   0

     enthalpy           new  =    -653.7849997313 Ry

     new trust radius        =       0.1583368949 bohr
ibrav =      1
 celldm(1) =      5.06999223
Input lattice vectors:
     0.93709086     0.00000000     0.00000000
     0.00000000     0.93709086     0.00000000
     0.00000000     0.00000000     0.93709086
New lattice vectors in INITIAL alat:
     0.93709086     0.00000000     0.00000000
     0.00000000     0.93709086     0.00000000
     0.00000000     0.00000000     0.93709086
New lattice vectors in NEW alat (for information only):
     1.00000000     0.00000000     0.00000000
     0.00000000     1.00000000     0.00000000
     0.00000000     0.00000000     1.00000000
Discrepancy in bohr =     0.000000    0.000000    0.000000
     new conv_thr            =       0.0000000100 Ry

     new unit-cell volume =    130.32324 a.u.^3 (    19.31191 Ang^3 )
     density =      9.60369 g/cm^3

CELL_PARAMETERS (alat=  5.41035287)
   0.937090861   0.000000000   0.000000000
   0.000000000   0.937090861   0.000000000
   0.000000000   0.000000000   0.937090861

ATOMIC_POSITIONS (crystal)
Fe1              0.0000000000        0.0000000000        0.0000000000
Fe1              0.5000000000        0.5000000000        0.5000000000



     Writing config-only to output data dir ./temp/fe-fm.save/ :
     XML data file
     NEW-OLD atomic charge density approx. for the potential

     Check: negative core charge=   -0.000004

     negative rho (up, down):  0.000E+00 2.450E-04
     Generating pointlists ...
     new r_m :   0.3348 (alat units)  1.8112 (a.u.) for type    1
     new r_m :   0.3865 (alat units)  2.0914 (a.u.) for type    2

     total cpu time spent up to now is       18.2 secs

     Self-consistent Calculation

     iteration #  1     ecut=    50.00 Ry     beta= 0.70
     Davidson diagonalization with overlap
     ethr =  1.00E-06,  avg # of iterations =  7.2

     negative rho (up, down):  0.000E+00 2.313E-04

     total cpu time spent up to now is       21.6 secs

     total energy              =    -653.77552874 Ry
     estimated scf accuracy    <       0.04847151 Ry

     total magnetization       =     3.94 Bohr mag/cell
     absolute magnetization    =     4.10 Bohr mag/cell

     iteration #  2     ecut=    50.00 Ry     beta= 0.70
     Davidson diagonalization with overlap
     ethr =  1.51E-04,  avg # of iterations =  3.5

     negative rho (up, down):  0.000E+00 1.461E-04

     total cpu time spent up to now is       23.5 secs

     total energy              =    -653.78387687 Ry
     estimated scf accuracy    <       0.17083719 Ry

     total magnetization       =     4.06 Bohr mag/cell
     absolute magnetization    =     4.20 Bohr mag/cell

     iteration #  3     ecut=    50.00 Ry     beta= 0.70
     Davidson diagonalization with overlap
     ethr =  1.51E-04,  avg # of iterations =  3.0

     negative rho (up, down):  0.000E+00 1.224E-04

     total cpu time spent up to now is       25.0 secs

     total energy              =    -653.79288651 Ry
     estimated scf accuracy    <       0.00554003 Ry

     total magnetization       =     3.91 Bohr mag/cell
     absolute magnetization    =     4.06 Bohr mag/cell

     iteration #  4     ecut=    50.00 Ry     beta= 0.70
     Davidson diagonalization with overlap
     ethr =  1.73E-05,  avg # of iterations =  2.7

     negative rho (up, down):  0.000E+00 9.953E-05

     total cpu time spent up to now is       26.6 secs

     total energy              =    -653.79189628 Ry
     estimated scf accuracy    <       0.07682237 Ry

     total magnetization       =     3.84 Bohr mag/cell
     absolute magnetization    =     3.96 Bohr mag/cell

     iteration #  5     ecut=    50.00 Ry     beta= 0.70
     Davidson diagonalization with overlap
     ethr =  1.73E-05,  avg # of iterations =  2.1

     negative rho (up, down):  0.000E+00 1.176E-04

     total cpu time spent up to now is       28.1 secs

     total energy              =    -653.79321034 Ry
     estimated scf accuracy    <       0.00338569 Ry

     total magnetization       =     3.77 Bohr mag/cell
     absolute magnetization    =     3.89 Bohr mag/cell

     iteration #  6     ecut=    50.00 Ry     beta= 0.70
     Davidson diagonalization with overlap
     ethr =  1.06E-05,  avg # of iterations =  2.0

     negative rho (up, down):  0.000E+00 1.067E-04

     total cpu time spent up to now is       29.4 secs

     total energy              =    -653.79358015 Ry
     estimated scf accuracy    <       0.00004580 Ry

     total magnetization       =     3.77 Bohr mag/cell
     absolute magnetization    =     3.89 Bohr mag/cell

     iteration #  7     ecut=    50.00 Ry     beta= 0.70
     Davidson diagonalization with overlap
     ethr =  1.43E-07,  avg # of iterations =  3.5

     negative rho (up, down):  0.000E+00 9.160E-05

     total cpu time spent up to now is       31.1 secs

     total energy              =    -653.79357807 Ry
     estimated scf accuracy    <       0.00000345 Ry

     total magnetization       =     3.76 Bohr mag/cell
     absolute magnetization    =     3.87 Bohr mag/cell

     iteration #  8     ecut=    50.00 Ry     beta= 0.70
     Davidson diagonalization with overlap
     ethr =  1.08E-08,  avg # of iterations =  2.7

     negative rho (up, down):  0.000E+00 9.407E-05

     total cpu time spent up to now is       32.8 secs

     total energy              =    -653.79358045 Ry
     estimated scf accuracy    <       0.00000660 Ry

     total magnetization       =     3.75 Bohr mag/cell
     absolute magnetization    =     3.86 Bohr mag/cell

     iteration #  9     ecut=    50.00 Ry     beta= 0.70
     Davidson diagonalization with overlap
     ethr =  1.08E-08,  avg # of iterations =  2.0

     negative rho (up, down):  0.000E+00 9.292E-05

     total cpu time spent up to now is       34.3 secs

     total energy              =    -653.79358179 Ry
     estimated scf accuracy    <       0.00000010 Ry

     total magnetization       =     3.76 Bohr mag/cell
     absolute magnetization    =     3.87 Bohr mag/cell

     iteration # 10     ecut=    50.00 Ry     beta= 0.70
     Davidson diagonalization with overlap
     ethr =  3.23E-10,  avg # of iterations =  2.1

     negative rho (up, down):  0.000E+00 9.344E-05

     total cpu time spent up to now is       35.8 secs

     total energy              =    -653.79358183 Ry
     estimated scf accuracy    <       0.00000004 Ry

     total magnetization       =     3.75 Bohr mag/cell
     absolute magnetization    =     3.87 Bohr mag/cell

     iteration # 11     ecut=    50.00 Ry     beta= 0.70
     Davidson diagonalization with overlap
     ethr =  1.10E-10,  avg # of iterations =  2.1

     negative rho (up, down):  0.000E+00 9.279E-05

     total cpu time spent up to now is       37.2 secs

     total energy              =    -653.79358181 Ry
     estimated scf accuracy    <       0.00000001 Ry

     total magnetization       =     3.75 Bohr mag/cell
     absolute magnetization    =     3.87 Bohr mag/cell

     iteration # 12     ecut=    50.00 Ry     beta= 0.70
     Davidson diagonalization with overlap
     ethr =  3.14E-11,  avg # of iterations =  2.4

     negative rho (up, down):  0.000E+00 9.280E-05

     Magnetic moment per site  (integrated on atomic sphere of radius R)
     atom   1 (R=0.335)  charge= 14.2538  magn=  1.8851
     atom   2 (R=0.335)  charge= 14.2538  magn=  1.8851

     total cpu time spent up to now is       38.9 secs

     End of self-consistent calculation

     Number of k-points >= 100: set verbosity='high' to print the bands.

     the Fermi energy is    22.2220 ev

!    total energy              =    -653.79358181 Ry
     total all-electron energy =     -5086.445000 Ry
     estimated scf accuracy    <          8.6E-09 Ry
     smearing contrib. (-TS)   =      -0.00538388 Ry
     internal energy E=F+TS    =    -653.78819794 Ry

     The total energy is F=E-TS. E is the sum of the following terms:
     one-electron contribution =    -188.51534905 Ry
     hartree contribution      =     118.77093307 Ry
     xc contribution           =     -55.09040458 Ry
     ewald contribution        =    -367.51289604 Ry
     one-center paw contrib.   =    -161.44048132 Ry

     total magnetization       =     3.75 Bohr mag/cell
     absolute magnetization    =     3.87 Bohr mag/cell

     convergence has been achieved in  12 iterations

     negative rho (up, down):  0.000E+00 9.280E-05

     Forces acting on atoms (cartesian axes, Ry/au):

     atom    1 type  1   force =     0.00000000    0.00000000    0.00000000
     atom    2 type  1   force =     0.00000000    0.00000000    0.00000000

     Total force =     0.000000     Total SCF correction =     0.000000


     Computing stress (Cartesian axis) and pressure


     negative rho (up, down):  0.000E+00 9.280E-05
          total   stress  (Ry/bohr**3)                   (kbar)     P=      313.57
   0.00213158   0.00000000   0.00000000          313.57        0.00        0.00
   0.00000000   0.00213158   0.00000000            0.00      313.57        0.00
   0.00000000   0.00000000   0.00213158            0.00        0.00      313.57

     Energy error            =      8.6E-03 Ry
     Gradient error          =      0.0E+00 Ry/Bohr
     Cell gradient error     =      3.1E+02 kbar

     number of scf cycles    =   2
     number of bfgs steps    =   1

     enthalpy           old  =    -653.7849997313 Ry
     enthalpy           new  =    -653.7935818143 Ry

     CASE: enthalpy          _new < enthalpy          _old

     new trust radius        =       0.0653811373 bohr
ibrav =      1
 celldm(1) =      5.21517625
Input lattice vectors:
     0.96392534     0.00000000     0.00000000
     0.00000000     0.96392534     0.00000000
     0.00000000     0.00000000     0.96392534
New lattice vectors in INITIAL alat:
     0.96392534     0.00000000     0.00000000
     0.00000000     0.96392534     0.00000000
     0.00000000     0.00000000     0.96392534
New lattice vectors in NEW alat (for information only):
     1.00000000     0.00000000     0.00000000
     0.00000000     1.00000000     0.00000000
     0.00000000     0.00000000     1.00000000
Discrepancy in bohr =     0.000000    0.000000    0.000000
     new conv_thr            =            1.0E-10 Ry

     new unit-cell volume =    141.84269 a.u.^3 (    21.01892 Ang^3 )
     density =      8.82375 g/cm^3

CELL_PARAMETERS (alat=  5.41035287)
   0.963925344   0.000000000   0.000000000
   0.000000000   0.963925344   0.000000000
   0.000000000   0.000000000   0.963925344

ATOMIC_POSITIONS (crystal)
Fe1              0.0000000000        0.0000000000        0.0000000000
Fe1              0.5000000000        0.5000000000        0.5000000000



     Writing config-only to output data dir ./temp/fe-fm.save/ :
     XML data file
     NEW-OLD atomic charge density approx. for the potential

     Check: negative core charge=   -0.000006

     negative rho (up, down):  0.000E+00 9.794E-05
     Generating pointlists ...

     total cpu time spent up to now is       40.3 secs

     Self-consistent Calculation

     iteration #  1     ecut=    50.00 Ry     beta= 0.70
     Davidson diagonalization with overlap
     ethr =  1.00E-06,  avg # of iterations =  6.1

     negative rho (up, down):  0.000E+00 1.247E-04

     total cpu time spent up to now is       43.0 secs

     total energy              =    -653.80353351 Ry
     estimated scf accuracy    <       0.00350948 Ry

     total magnetization       =     3.98 Bohr mag/cell
     absolute magnetization    =     4.10 Bohr mag/cell

     iteration #  2     ecut=    50.00 Ry     beta= 0.70
     Davidson diagonalization with overlap
     ethr =  1.10E-05,  avg # of iterations =  2.9

     negative rho (up, down):  0.000E+00 1.486E-04

     total cpu time spent up to now is       44.8 secs

     total energy              =    -653.80413789 Ry
     estimated scf accuracy    <       0.01005138 Ry

     total magnetization       =     3.97 Bohr mag/cell
     absolute magnetization    =     4.11 Bohr mag/cell

     iteration #  3     ecut=    50.00 Ry     beta= 0.70
     Davidson diagonalization with overlap
     ethr =  1.10E-05,  avg # of iterations =  3.1

     negative rho (up, down):  0.000E+00 1.513E-04

     total cpu time spent up to now is       46.3 secs

     total energy              =    -653.80545127 Ry
     estimated scf accuracy    <       0.00066920 Ry

     total magnetization       =     4.02 Bohr mag/cell
     absolute magnetization    =     4.15 Bohr mag/cell

     iteration #  4     ecut=    50.00 Ry     beta= 0.70
     Davidson diagonalization with overlap
     ethr =  2.09E-06,  avg # of iterations =  2.4

     negative rho (up, down):  0.000E+00 1.604E-04

     total cpu time spent up to now is       47.7 secs

     total energy              =    -653.80528143 Ry
     estimated scf accuracy    <       0.00951149 Ry

     total magnetization       =     4.02 Bohr mag/cell
     absolute magnetization    =     4.16 Bohr mag/cell

     iteration #  5     ecut=    50.00 Ry     beta= 0.70
     Davidson diagonalization with overlap
     ethr =  2.09E-06,  avg # of iterations =  2.0

     negative rho (up, down):  0.000E+00 1.610E-04

     total cpu time spent up to now is       49.1 secs

     total energy              =    -653.80570929 Ry
     estimated scf accuracy    <       0.00018685 Ry

     total magnetization       =     4.07 Bohr mag/cell
     absolute magnetization    =     4.21 Bohr mag/cell

     iteration #  6     ecut=    50.00 Ry     beta= 0.70
     Davidson diagonalization with overlap
     ethr =  5.84E-07,  avg # of iterations =  2.6

     negative rho (up, down):  0.000E+00 1.695E-04

     total cpu time spent up to now is       50.5 secs

     total energy              =    -653.80575099 Ry
     estimated scf accuracy    <       0.00000727 Ry

     total magnetization       =     4.08 Bohr mag/cell
     absolute magnetization    =     4.23 Bohr mag/cell

     iteration #  7     ecut=    50.00 Ry     beta= 0.70
     Davidson diagonalization with overlap
     ethr =  2.27E-08,  avg # of iterations =  2.1

     negative rho (up, down):  0.000E+00 1.730E-04

     total cpu time spent up to now is       52.1 secs

     total energy              =    -653.80575271 Ry
     estimated scf accuracy    <       0.00000336 Ry

     total magnetization       =     4.08 Bohr mag/cell
     absolute magnetization    =     4.23 Bohr mag/cell

     iteration #  8     ecut=    50.00 Ry     beta= 0.70
     Davidson diagonalization with overlap
     ethr =  1.05E-08,  avg # of iterations =  2.4

     negative rho (up, down):  0.000E+00 1.724E-04

     total cpu time spent up to now is       53.6 secs

     total energy              =    -653.80575350 Ry
     estimated scf accuracy    <       0.00000018 Ry

     total magnetization       =     4.08 Bohr mag/cell
     absolute magnetization    =     4.23 Bohr mag/cell

     iteration #  9     ecut=    50.00 Ry     beta= 0.70
     Davidson diagonalization with overlap
     ethr =  5.54E-10,  avg # of iterations =  2.2

     negative rho (up, down):  0.000E+00 1.724E-04

     total cpu time spent up to now is       55.7 secs

     total energy              =    -653.80575353 Ry
     estimated scf accuracy    <       0.00000001 Ry

     total magnetization       =     4.08 Bohr mag/cell
     absolute magnetization    =     4.23 Bohr mag/cell

     iteration # 10     ecut=    50.00 Ry     beta= 0.70
     Davidson diagonalization with overlap
     ethr =  4.61E-11,  avg # of iterations =  2.0

     negative rho (up, down):  0.000E+00 1.723E-04

     total cpu time spent up to now is       57.8 secs

     total energy              =    -653.80575354 Ry
     estimated scf accuracy    <          9.2E-09 Ry

     total magnetization       =     4.08 Bohr mag/cell
     absolute magnetization    =     4.23 Bohr mag/cell

     iteration # 11     ecut=    50.00 Ry     beta= 0.70
     Davidson diagonalization with overlap
     ethr =  2.87E-11,  avg # of iterations =  2.9

     negative rho (up, down):  0.000E+00 1.724E-04

     total cpu time spent up to now is       60.3 secs

     total energy              =    -653.80575353 Ry
     estimated scf accuracy    <          2.8E-09 Ry

     total magnetization       =     4.08 Bohr mag/cell
     absolute magnetization    =     4.23 Bohr mag/cell

     iteration # 12     ecut=    50.00 Ry     beta= 0.70
     Davidson diagonalization with overlap
     ethr =  8.77E-12,  avg # of iterations =  2.3

     negative rho (up, down):  0.000E+00 1.724E-04

     Magnetic moment per site  (integrated on atomic sphere of radius R)
     atom   1 (R=0.335)  charge= 14.1506  magn=  2.0539
     atom   2 (R=0.335)  charge= 14.1506  magn=  2.0538

     total cpu time spent up to now is       62.7 secs

     End of self-consistent calculation

     Number of k-points >= 100: set verbosity='high' to print the bands.

     the Fermi energy is    20.0292 ev

!    total energy              =    -653.80575353 Ry
     total all-electron energy =     -5086.457172 Ry
     estimated scf accuracy    <          9.5E-11 Ry
     smearing contrib. (-TS)   =      -0.00546646 Ry
     internal energy E=F+TS    =    -653.80028707 Ry

     The total energy is F=E-TS. E is the sum of the following terms:
     one-electron contribution =    -204.49859425 Ry
     hartree contribution      =     124.37462735 Ry
     xc contribution           =     -54.95618358 Ry
     ewald contribution        =    -357.28179388 Ry
     one-center paw contrib.   =    -161.43834271 Ry

     total magnetization       =     4.08 Bohr mag/cell
     absolute magnetization    =     4.23 Bohr mag/cell

     convergence has been achieved in  12 iterations

     negative rho (up, down):  0.000E+00 1.724E-04

     Forces acting on atoms (cartesian axes, Ry/au):

     atom    1 type  1   force =     0.00000000    0.00000000    0.00000000
     atom    2 type  1   force =     0.00000000    0.00000000    0.00000000

     Total force =     0.000000     Total SCF correction =     0.000000


     Computing stress (Cartesian axis) and pressure


     negative rho (up, down):  0.000E+00 1.724E-04
          total   stress  (Ry/bohr**3)                   (kbar)     P=        7.28
   0.00004946   0.00000000   0.00000000            7.28        0.00        0.00
   0.00000000   0.00004946   0.00000000            0.00        7.28        0.00
   0.00000000   0.00000000   0.00004946            0.00        0.00        7.28

     Energy error            =      1.2E-02 Ry
     Gradient error          =      0.0E+00 Ry/Bohr
     Cell gradient error     =      7.3E+00 kbar

     number of scf cycles    =   3
     number of bfgs steps    =   2

     enthalpy           old  =    -653.7935818143 Ry
     enthalpy           new  =    -653.8057535334 Ry

     CASE: enthalpy          _new < enthalpy          _old

     new trust radius        =       0.0016688309 bohr
ibrav =      1
 celldm(1) =      5.21883008
Input lattice vectors:
     0.96460068     0.00000000     0.00000000
     0.00000000     0.96460068     0.00000000
     0.00000000     0.00000000     0.96460068
New lattice vectors in INITIAL alat:
     0.96460068     0.00000000     0.00000000
     0.00000000     0.96460068     0.00000000
     0.00000000     0.00000000     0.96460068
New lattice vectors in NEW alat (for information only):
     1.00000000     0.00000000     0.00000000
     0.00000000     1.00000000     0.00000000
     0.00000000     0.00000000     1.00000000
Discrepancy in bohr =     0.000000    0.000000    0.000000
     new conv_thr            =            1.0E-10 Ry

     new unit-cell volume =    142.14103 a.u.^3 (    21.06313 Ang^3 )
     density =      8.80523 g/cm^3

CELL_PARAMETERS (alat=  5.41035287)
   0.964600684   0.000000000   0.000000000
   0.000000000   0.964600684   0.000000000
   0.000000000   0.000000000   0.964600684

ATOMIC_POSITIONS (crystal)
Fe1              0.0000000000        0.0000000000        0.0000000000
Fe1              0.5000000000        0.5000000000        0.5000000000



     Writing config-only to output data dir ./temp/fe-fm.save/ :
     XML data file
     NEW-OLD atomic charge density approx. for the potential

     Check: negative core charge=   -0.000006

     negative rho (up, down):  0.000E+00 1.728E-04
     Generating pointlists ...

     total cpu time spent up to now is       65.0 secs

     Self-consistent Calculation

     iteration #  1     ecut=    50.00 Ry     beta= 0.70
     Davidson diagonalization with overlap
     ethr =  1.00E-06,  avg # of iterations =  2.0

     Threshold (ethr) on eigenvalues was too large:
     Diagonalizing with lowered threshold

     Davidson diagonalization with overlap
     ethr =  6.62E-09,  avg # of iterations =  2.5

     negative rho (up, down):  0.000E+00 1.734E-04

     total cpu time spent up to now is       69.8 secs

     total energy              =    -653.80575904 Ry
     estimated scf accuracy    <       0.00000300 Ry

     total magnetization       =     4.09 Bohr mag/cell
     absolute magnetization    =     4.24 Bohr mag/cell

     iteration #  2     ecut=    50.00 Ry     beta= 0.70
     Davidson diagonalization with overlap
     ethr =  9.36E-09,  avg # of iterations =  3.1

     negative rho (up, down):  0.000E+00 1.741E-04

     total cpu time spent up to now is       72.9 secs

     total energy              =    -653.80575930 Ry
     estimated scf accuracy    <       0.00001011 Ry

     total magnetization       =     4.09 Bohr mag/cell
     absolute magnetization    =     4.24 Bohr mag/cell

     iteration #  3     ecut=    50.00 Ry     beta= 0.70
     Davidson diagonalization with overlap
     ethr =  9.36E-09,  avg # of iterations =  3.1

     negative rho (up, down):  0.000E+00 1.741E-04

     total cpu time spent up to now is       75.5 secs

     total energy              =    -653.80576043 Ry
     estimated scf accuracy    <       0.00000380 Ry

     total magnetization       =     4.09 Bohr mag/cell
     absolute magnetization    =     4.24 Bohr mag/cell

     iteration #  4     ecut=    50.00 Ry     beta= 0.70
     Davidson diagonalization with overlap
     ethr =  9.36E-09,  avg # of iterations =  1.0

     negative rho (up, down):  0.000E+00 1.743E-04

     total cpu time spent up to now is       78.0 secs

     total energy              =    -653.80576050 Ry
     estimated scf accuracy    <       0.00000068 Ry

     total magnetization       =     4.09 Bohr mag/cell
     absolute magnetization    =     4.24 Bohr mag/cell

     iteration #  5     ecut=    50.00 Ry     beta= 0.70
     Davidson diagonalization with overlap
     ethr =  2.13E-09,  avg # of iterations =  2.0

     negative rho (up, down):  0.000E+00 1.743E-04

     total cpu time spent up to now is       80.3 secs

     total energy              =    -653.80576056 Ry
     estimated scf accuracy    <       0.00000005 Ry

     total magnetization       =     4.09 Bohr mag/cell
     absolute magnetization    =     4.24 Bohr mag/cell

     iteration #  6     ecut=    50.00 Ry     beta= 0.70
     Davidson diagonalization with overlap
     ethr =  1.69E-10,  avg # of iterations =  1.9

     negative rho (up, down):  0.000E+00 1.744E-04

     total cpu time spent up to now is       82.6 secs

     total energy              =    -653.80576055 Ry
     estimated scf accuracy    <       0.00000001 Ry

     total magnetization       =     4.09 Bohr mag/cell
     absolute magnetization    =     4.24 Bohr mag/cell

     iteration #  7     ecut=    50.00 Ry     beta= 0.70
     Davidson diagonalization with overlap
     ethr =  3.48E-11,  avg # of iterations =  2.6

     negative rho (up, down):  0.000E+00 1.746E-04

     total cpu time spent up to now is       85.0 secs

     total energy              =    -653.80576054 Ry
     estimated scf accuracy    <          8.7E-10 Ry

     total magnetization       =     4.09 Bohr mag/cell
     absolute magnetization    =     4.24 Bohr mag/cell

     iteration #  8     ecut=    50.00 Ry     beta= 0.70
     Davidson diagonalization with overlap
     ethr =  2.72E-12,  avg # of iterations =  2.9

     negative rho (up, down):  0.000E+00 1.746E-04

     total cpu time spent up to now is       87.7 secs

     total energy              =    -653.80576055 Ry
     estimated scf accuracy    <          1.3E-10 Ry

     total magnetization       =     4.09 Bohr mag/cell
     absolute magnetization    =     4.24 Bohr mag/cell

     iteration #  9     ecut=    50.00 Ry     beta= 0.70
     Davidson diagonalization with overlap
     ethr =  3.91E-13,  avg # of iterations =  1.7

     negative rho (up, down):  0.000E+00 1.746E-04

     Magnetic moment per site  (integrated on atomic sphere of radius R)
     atom   1 (R=0.335)  charge= 14.1484  magn=  2.0578
     atom   2 (R=0.335)  charge= 14.1484  magn=  2.0578

     total cpu time spent up to now is       89.9 secs

     End of self-consistent calculation

     Number of k-points >= 100: set verbosity='high' to print the bands.

     the Fermi energy is    19.9769 ev

!    total energy              =    -653.80576055 Ry
     total all-electron energy =     -5086.457179 Ry
     estimated scf accuracy    <          1.1E-11 Ry
     smearing contrib. (-TS)   =      -0.00546276 Ry
     internal energy E=F+TS    =    -653.80029779 Ry

     The total energy is F=E-TS. E is the sum of the following terms:
     one-electron contribution =    -204.89152087 Ry
     hartree contribution      =     124.51424925 Ry
     xc contribution           =     -54.95313002 Ry
     ewald contribution        =    -357.03165248 Ry
     one-center paw contrib.   =    -161.43824367 Ry

     total magnetization       =     4.09 Bohr mag/cell
     absolute magnetization    =     4.24 Bohr mag/cell

     convergence has been achieved in   9 iterations

     negative rho (up, down):  0.000E+00 1.746E-04

     Forces acting on atoms (cartesian axes, Ry/au):

     atom    1 type  1   force =     0.00000000    0.00000000    0.00000000
     atom    2 type  1   force =     0.00000000    0.00000000    0.00000000

     Total force =     0.000000     Total SCF correction =     0.000000


     Computing stress (Cartesian axis) and pressure


     negative rho (up, down):  0.000E+00 1.746E-04
          total   stress  (Ry/bohr**3)                   (kbar)     P=       -0.20
  -0.00000139   0.00000000   0.00000000           -0.20        0.00        0.00
   0.00000000  -0.00000139   0.00000000            0.00       -0.20        0.00
   0.00000000   0.00000000  -0.00000139            0.00        0.00       -0.20

     Energy error            =      7.0E-06 Ry
     Gradient error          =      0.0E+00 Ry/Bohr
     Cell gradient error     =      2.0E-01 kbar
ibrav =      1
 celldm(1) =      5.21883008
Input lattice vectors:
     0.96460068     0.00000000     0.00000000
     0.00000000     0.96460068     0.00000000
     0.00000000     0.00000000     0.96460068
New lattice vectors in INITIAL alat:
     0.96460068     0.00000000     0.00000000
     0.00000000     0.96460068     0.00000000
     0.00000000     0.00000000     0.96460068
New lattice vectors in NEW alat (for information only):
     1.00000000     0.00000000     0.00000000
     0.00000000     1.00000000     0.00000000
     0.00000000     0.00000000     1.00000000
Discrepancy in bohr =     0.000000    0.000000    0.000000

     bfgs converged in   4 scf cycles and   3 bfgs steps
     (criteria: energy <  1.0E-05 Ry, force <  1.0E-04 Ry/Bohr, cell <  5.0E-01 kbar)

     End of BFGS Geometry Optimization

     Final enthalpy           =    -653.8057605452 Ry

     File ./temp/fe-fm.bfgs deleted, as requested
Begin final coordinates
     new unit-cell volume =    142.14103 a.u.^3 (    21.06313 Ang^3 )
     density =      8.80523 g/cm^3

CELL_PARAMETERS (alat=  5.41035287)
   0.964600684   0.000000000   0.000000000
   0.000000000   0.964600684   0.000000000
   0.000000000   0.000000000   0.964600684

ATOMIC_POSITIONS (crystal)
Fe1              0.0000000000        0.0000000000        0.0000000000
Fe1              0.5000000000        0.5000000000        0.5000000000
End final coordinates



     Writing config-only to output data dir ./temp/fe-fm.save/ :
     XML data file

     Final scf calculation at the relaxed structure.
     The G-vectors are recalculated for the final unit cell
     Results may differ from those at the preceding step.

     Parallelization info
     --------------------
     sticks:   dense  smooth     PW     G-vecs:    dense   smooth      PW
     Min         216     109     34                 4802     1690     308
     Max         218     110     35                 4804     1691     311
     Sum         869     437    137                19213     6763    1237

     Using Slab Decomposition



     bravais-lattice index     =            1
     lattice parameter (alat)  =       5.4104  a.u.
     unit-cell volume          =     142.1410 (a.u.)^3
     number of atoms/cell      =            2
     number of atomic types    =            2
     number of electrons       =        32.00
     number of Kohn-Sham states=           20
     kinetic-energy cutoff     =      50.0000  Ry
     charge density cutoff     =     400.0000  Ry
     scf convergence threshold =      1.0E-10
     mixing beta               =       0.7000
     number of iterations used =            8  plain     mixing
     press convergence thresh. =      5.0E-01
     Exchange-correlation= SLA  PW   PSX  PSC
                           (   1   4  10   8   0   0   0)

     celldm(1)=   5.410353  celldm(2)=   0.000000  celldm(3)=   0.000000
     celldm(4)=   0.000000  celldm(5)=   0.000000  celldm(6)=   0.000000

     crystal axes: (cart. coord. in units of alat)
               a(1) = (   0.964601   0.000000   0.000000 )  
               a(2) = (   0.000000   0.964601   0.000000 )  
               a(3) = (   0.000000   0.000000   0.964601 )  

     reciprocal axes: (cart. coord. in units 2 pi/alat)
               b(1) = (  1.036698  0.000000  0.000000 )  
               b(2) = (  0.000000  1.036698  0.000000 )  
               b(3) = (  0.000000  0.000000  1.036698 )  


     PseudoPot. # 1 for Fe read from file:
     ./../../pseudos/Fe.pbesol-spn-kjpaw_psl.1.0.0.UPF
     MD5 check sum: e30d5f36a6f0cb983ee41abee56170da
     Pseudo is Projector augmented-wave + core cor, Zval = 16.0
     Generated using &quot;atomic&quot; code by A. Dal Corso  v.6.3
     Shape of augmentation charge: PSQ
     Using radial grid of 1191 points,  6 beta functions with: 
                l(1) =   0
                l(2) =   0
                l(3) =   1
                l(4) =   1
                l(5) =   2
                l(6) =   2
     Q(r) pseudized with 0 coefficients 


     PseudoPot. # 2 for Fe read from file:
     ./../../pseudos/Fe.pbesol-spn-kjpaw_psl.1.0.0.UPF
     MD5 check sum: e30d5f36a6f0cb983ee41abee56170da
     Pseudo is Projector augmented-wave + core cor, Zval = 16.0
     Generated using &quot;atomic&quot; code by A. Dal Corso  v.6.3
     Shape of augmentation charge: PSQ
     Using radial grid of 1191 points,  6 beta functions with: 
                l(1) =   0
                l(2) =   0
                l(3) =   1
                l(4) =   1
                l(5) =   2
                l(6) =   2
     Q(r) pseudized with 0 coefficients 


     atomic species   valence    mass     pseudopotential
     Fe1              16.00    55.84500     Fe( 1.00)
     Fe2              16.00    55.84500     Fe( 1.00)

     Starting magnetic structure 
     atomic species   magnetization
     Fe1             0.145
     Fe2             0.000

     48 Sym. Ops., with inversion, found



   Cartesian axes

     site n.     atom                  positions (alat units)
         1        Fe1    tau(   1) = (   0.0000000   0.0000000   0.0000000  )
         2        Fe1    tau(   2) = (   0.4823003   0.4823003   0.4823003  )

     number of k points=    56  Gaussian smearing, width (Ry)=  0.0200
                       cart. coord. in units 2pi/alat
        k(    1) = (   0.0000000   0.0000000   0.0000000), wk =   0.0007513
        k(    2) = (   0.0000000   0.0000000   0.0942453), wk =   0.0045079
        k(    3) = (   0.0000000   0.0000000   0.1884906), wk =   0.0045079
        k(    4) = (   0.0000000   0.0000000   0.2827359), wk =   0.0045079
        k(    5) = (   0.0000000   0.0000000   0.3769812), wk =   0.0045079
        k(    6) = (   0.0000000   0.0000000   0.4712266), wk =   0.0045079
        k(    7) = (   0.0000000   0.0942453   0.0942453), wk =   0.0090158
        k(    8) = (   0.0000000   0.0942453   0.1884906), wk =   0.0180316
        k(    9) = (   0.0000000   0.0942453   0.2827359), wk =   0.0180316
        k(   10) = (   0.0000000   0.0942453   0.3769812), wk =   0.0180316
        k(   11) = (   0.0000000   0.0942453   0.4712266), wk =   0.0180316
        k(   12) = (   0.0000000   0.1884906   0.1884906), wk =   0.0090158
        k(   13) = (   0.0000000   0.1884906   0.2827359), wk =   0.0180316
        k(   14) = (   0.0000000   0.1884906   0.3769812), wk =   0.0180316
        k(   15) = (   0.0000000   0.1884906   0.4712266), wk =   0.0180316
        k(   16) = (   0.0000000   0.2827359   0.2827359), wk =   0.0090158
        k(   17) = (   0.0000000   0.2827359   0.3769812), wk =   0.0180316
        k(   18) = (   0.0000000   0.2827359   0.4712266), wk =   0.0180316
        k(   19) = (   0.0000000   0.3769812   0.3769812), wk =   0.0090158
        k(   20) = (   0.0000000   0.3769812   0.4712266), wk =   0.0180316
        k(   21) = (   0.0000000   0.4712266   0.4712266), wk =   0.0090158
        k(   22) = (   0.0942453   0.0942453   0.0942453), wk =   0.0060105
        k(   23) = (   0.0942453   0.0942453   0.1884906), wk =   0.0180316
        k(   24) = (   0.0942453   0.0942453   0.2827359), wk =   0.0180316
        k(   25) = (   0.0942453   0.0942453   0.3769812), wk =   0.0180316
        k(   26) = (   0.0942453   0.0942453   0.4712266), wk =   0.0180316
        k(   27) = (   0.0942453   0.1884906   0.1884906), wk =   0.0180316
        k(   28) = (   0.0942453   0.1884906   0.2827359), wk =   0.0360631
        k(   29) = (   0.0942453   0.1884906   0.3769812), wk =   0.0360631
        k(   30) = (   0.0942453   0.1884906   0.4712266), wk =   0.0360631
        k(   31) = (   0.0942453   0.2827359   0.2827359), wk =   0.0180316
        k(   32) = (   0.0942453   0.2827359   0.3769812), wk =   0.0360631
        k(   33) = (   0.0942453   0.2827359   0.4712266), wk =   0.0360631
        k(   34) = (   0.0942453   0.3769812   0.3769812), wk =   0.0180316
        k(   35) = (   0.0942453   0.3769812   0.4712266), wk =   0.0360631
        k(   36) = (   0.0942453   0.4712266   0.4712266), wk =   0.0180316
        k(   37) = (   0.1884906   0.1884906   0.1884906), wk =   0.0060105
        k(   38) = (   0.1884906   0.1884906   0.2827359), wk =   0.0180316
        k(   39) = (   0.1884906   0.1884906   0.3769812), wk =   0.0180316
        k(   40) = (   0.1884906   0.1884906   0.4712266), wk =   0.0180316
        k(   41) = (   0.1884906   0.2827359   0.2827359), wk =   0.0180316
        k(   42) = (   0.1884906   0.2827359   0.3769812), wk =   0.0360631
        k(   43) = (   0.1884906   0.2827359   0.4712266), wk =   0.0360631
        k(   44) = (   0.1884906   0.3769812   0.3769812), wk =   0.0180316
        k(   45) = (   0.1884906   0.3769812   0.4712266), wk =   0.0360631
        k(   46) = (   0.1884906   0.4712266   0.4712266), wk =   0.0180316
        k(   47) = (   0.2827359   0.2827359   0.2827359), wk =   0.0060105
        k(   48) = (   0.2827359   0.2827359   0.3769812), wk =   0.0180316
        k(   49) = (   0.2827359   0.2827359   0.4712266), wk =   0.0180316
        k(   50) = (   0.2827359   0.3769812   0.3769812), wk =   0.0180316
        k(   51) = (   0.2827359   0.3769812   0.4712266), wk =   0.0360631
        k(   52) = (   0.2827359   0.4712266   0.4712266), wk =   0.0180316
        k(   53) = (   0.3769812   0.3769812   0.3769812), wk =   0.0060105
        k(   54) = (   0.3769812   0.3769812   0.4712266), wk =   0.0180316
        k(   55) = (   0.3769812   0.4712266   0.4712266), wk =   0.0180316
        k(   56) = (   0.4712266   0.4712266   0.4712266), wk =   0.0060105

     Dense  grid:    19213 G-vectors     FFT dimensions: (  36,  36,  36)

     Smooth grid:     6763 G-vectors     FFT dimensions: (  24,  24,  24)

     Estimated max dynamical RAM per process >      33.60 MB

     Estimated total dynamical RAM >     134.41 MB

     Check: negative core charge=   -0.000006
     Generating pointlists ...

     Initial potential from superposition of free atoms

     starting charge      31.9992, renormalised to      32.0000
     Starting wfcs are   20 randomized atomic wfcs
     Checking if some PAW data can be deallocated... 

     total cpu time spent up to now is       93.0 secs

     Self-consistent Calculation

     iteration #  1     ecut=    50.00 Ry     beta= 0.70
     Davidson diagonalization with overlap
     ethr =  1.00E-06,  avg # of iterations = 10.5

     total cpu time spent up to now is       99.2 secs

     total energy              =    -653.74367978 Ry
     estimated scf accuracy    <       0.08661844 Ry

     total magnetization       =     4.10 Bohr mag/cell
     absolute magnetization    =     4.12 Bohr mag/cell

     iteration #  2     ecut=    50.00 Ry     beta= 0.70
     Davidson diagonalization with overlap
     ethr =  2.71E-04,  avg # of iterations =  3.5

     total cpu time spent up to now is      102.4 secs

     total energy              =    -653.74574796 Ry
     estimated scf accuracy    <       0.21917106 Ry

     total magnetization       =     4.33 Bohr mag/cell
     absolute magnetization    =     4.40 Bohr mag/cell

     iteration #  3     ecut=    50.00 Ry     beta= 0.70
     Davidson diagonalization with overlap
     ethr =  2.71E-04,  avg # of iterations =  2.8

     total cpu time spent up to now is      104.9 secs

     total energy              =    -653.77212209 Ry
     estimated scf accuracy    <       0.19229631 Ry

     total magnetization       =     4.08 Bohr mag/cell
     absolute magnetization    =     4.17 Bohr mag/cell

     iteration #  4     ecut=    50.00 Ry     beta= 0.70
     Davidson diagonalization with overlap
     ethr =  2.71E-04,  avg # of iterations =  1.2

     negative rho (up, down):  0.000E+00 2.049E-04

     total cpu time spent up to now is      107.0 secs

     total energy              =    -653.78752372 Ry
     estimated scf accuracy    <       0.02027595 Ry

     total magnetization       =     4.12 Bohr mag/cell
     absolute magnetization    =     4.21 Bohr mag/cell

     iteration #  5     ecut=    50.00 Ry     beta= 0.70
     Davidson diagonalization with overlap
     ethr =  6.34E-05,  avg # of iterations =  1.1

     negative rho (up, down):  0.000E+00 1.968E-04

     total cpu time spent up to now is      109.1 secs

     total energy              =    -653.78883751 Ry
     estimated scf accuracy    <       0.00027363 Ry

     total magnetization       =     4.09 Bohr mag/cell
     absolute magnetization    =     4.22 Bohr mag/cell

     iteration #  6     ecut=    50.00 Ry     beta= 0.70
     Davidson diagonalization with overlap
     ethr =  8.55E-07,  avg # of iterations =  2.4

     negative rho (up, down):  0.000E+00 1.957E-04

     total cpu time spent up to now is      111.4 secs

     total energy              =    -653.78891967 Ry
     estimated scf accuracy    <       0.00001333 Ry

     total magnetization       =     4.09 Bohr mag/cell
     absolute magnetization    =     4.23 Bohr mag/cell

     iteration #  7     ecut=    50.00 Ry     beta= 0.70
     Davidson diagonalization with overlap
     ethr =  4.17E-08,  avg # of iterations =  2.6

     negative rho (up, down):  0.000E+00 1.974E-04

     total cpu time spent up to now is      113.8 secs

     total energy              =    -653.78892315 Ry
     estimated scf accuracy    <       0.00000944 Ry

     total magnetization       =     4.09 Bohr mag/cell
     absolute magnetization    =     4.24 Bohr mag/cell

     iteration #  8     ecut=    50.00 Ry     beta= 0.70
     Davidson diagonalization with overlap
     ethr =  2.95E-08,  avg # of iterations =  1.8

     negative rho (up, down):  0.000E+00 1.983E-04

     total cpu time spent up to now is      116.1 secs

     total energy              =    -653.78892500 Ry
     estimated scf accuracy    <       0.00000051 Ry

     total magnetization       =     4.09 Bohr mag/cell
     absolute magnetization    =     4.24 Bohr mag/cell

     iteration #  9     ecut=    50.00 Ry     beta= 0.70
     Davidson diagonalization with overlap
     ethr =  1.58E-09,  avg # of iterations =  2.6

     negative rho (up, down):  0.000E+00 1.989E-04

     total cpu time spent up to now is      118.2 secs

     total energy              =    -653.78892511 Ry
     estimated scf accuracy    <       0.00000013 Ry

     total magnetization       =     4.09 Bohr mag/cell
     absolute magnetization    =     4.24 Bohr mag/cell

     iteration # 10     ecut=    50.00 Ry     beta= 0.70
     Davidson diagonalization with overlap
     ethr =  4.10E-10,  avg # of iterations =  1.6

     negative rho (up, down):  0.000E+00 1.989E-04

     total cpu time spent up to now is      120.3 secs

     total energy              =    -653.78892514 Ry
     estimated scf accuracy    <       0.00000002 Ry

     total magnetization       =     4.10 Bohr mag/cell
     absolute magnetization    =     4.25 Bohr mag/cell

     iteration # 11     ecut=    50.00 Ry     beta= 0.70
     Davidson diagonalization with overlap
     ethr =  5.42E-11,  avg # of iterations =  2.1

     negative rho (up, down):  0.000E+00 1.990E-04

     total cpu time spent up to now is      122.6 secs

     total energy              =    -653.78892514 Ry
     estimated scf accuracy    <          9.7E-09 Ry

     total magnetization       =     4.10 Bohr mag/cell
     absolute magnetization    =     4.25 Bohr mag/cell

     iteration # 12     ecut=    50.00 Ry     beta= 0.70
     Davidson diagonalization with overlap
     ethr =  3.04E-11,  avg # of iterations =  1.7

     negative rho (up, down):  0.000E+00 1.990E-04

     total cpu time spent up to now is      124.6 secs

     total energy              =    -653.78892514 Ry
     estimated scf accuracy    <          1.9E-09 Ry

     total magnetization       =     4.10 Bohr mag/cell
     absolute magnetization    =     4.25 Bohr mag/cell

     iteration # 13     ecut=    50.00 Ry     beta= 0.70
     Davidson diagonalization with overlap
     ethr =  5.95E-12,  avg # of iterations =  1.7

     negative rho (up, down):  0.000E+00 1.990E-04

     Magnetic moment per site  (integrated on atomic sphere of radius R)
     atom   1 (R=0.335)  charge= 14.1485  magn=  2.0600
     atom   2 (R=0.335)  charge= 14.1485  magn=  2.0599

     total cpu time spent up to now is      126.6 secs

     End of self-consistent calculation

     Number of k-points >= 100: set verbosity='high' to print the bands.

     the Fermi energy is    19.9792 ev

!    total energy              =    -653.78892514 Ry
     total all-electron energy =     -5086.440344 Ry
     estimated scf accuracy    <          5.7E-11 Ry
     smearing contrib. (-TS)   =      -0.00546573 Ry
     internal energy E=F+TS    =    -653.78345941 Ry

     The total energy is F=E-TS. E is the sum of the following terms:
     one-electron contribution =    -204.85814102 Ry
     hartree contribution      =     124.49225347 Ry
     xc contribution           =     -54.95325382 Ry
     ewald contribution        =    -357.03165248 Ry
     one-center paw contrib.   =    -161.43266556 Ry

     total magnetization       =     4.10 Bohr mag/cell
     absolute magnetization    =     4.25 Bohr mag/cell

     convergence has been achieved in  13 iterations

     negative rho (up, down):  0.000E+00 1.990E-04

     Forces acting on atoms (cartesian axes, Ry/au):

     atom    1 type  1   force =     0.00000000    0.00000000    0.00000000
     atom    2 type  1   force =     0.00000000    0.00000000    0.00000000

     Total force =     0.000000     Total SCF correction =     0.000000


     Computing stress (Cartesian axis) and pressure


     negative rho (up, down):  0.000E+00 1.990E-04
          total   stress  (Ry/bohr**3)                   (kbar)     P=     -188.55
  -0.00128172   0.00000000   0.00000000         -188.55        0.00        0.00
   0.00000000  -0.00128172   0.00000000            0.00     -188.55        0.00
   0.00000000   0.00000000  -0.00128172            0.00        0.00     -188.55


     Writing all to output data dir ./temp/fe-fm.save/ :
     XML data file, charge density, pseudopotentials, collected wavefunctions

     init_run     :      2.08s CPU      2.30s WALL (       2 calls)
     electrons    :    110.57s CPU    117.06s WALL (       5 calls)
     update_pot   :      0.55s CPU      0.56s WALL (       3 calls)
     forces       :      1.33s CPU      1.38s WALL (       5 calls)
     stress       :      5.77s CPU      5.83s WALL (       5 calls)

     Called by init_run:
     wfcinit      :      0.92s CPU      0.99s WALL (       2 calls)
     potinit      :      0.53s CPU      0.63s WALL (       2 calls)
     hinit0       :      0.50s CPU      0.51s WALL (       2 calls)

     Called by electrons:
     c_bands      :     83.11s CPU     88.44s WALL (      58 calls)
     sum_band     :     14.28s CPU     15.25s WALL (      58 calls)
     v_of_rho     :      0.76s CPU      0.78s WALL (      61 calls)
     newd         :      2.58s CPU      2.62s WALL (      61 calls)
     PAW_pot      :     11.26s CPU     11.47s WALL (      64 calls)
     mix_rho      :      0.07s CPU      0.08s WALL (      58 calls)

     Called by c_bands:
     init_us_2    :      1.23s CPU      1.30s WALL (   14672 calls)
     cegterg      :     80.37s CPU     85.57s WALL (    6496 calls)

     Called by *egterg:
     cdiaghg      :      9.93s CPU     10.48s WALL (   22987 calls)
     h_psi        :     44.16s CPU     47.32s WALL (   23771 calls)
     s_psi        :      4.76s CPU      5.13s WALL (   23771 calls)
     g_psi        :      0.19s CPU      0.20s WALL (   17051 calls)

     Called by h_psi:
     h_psi:calbec :      5.44s CPU      5.89s WALL (   23771 calls)
     vloc_psi     :     33.61s CPU     35.94s WALL (   23771 calls)
     add_vuspsi   :      4.84s CPU      5.21s WALL (   23771 calls)

     General routines
     calbec       :      8.49s CPU      9.13s WALL (   33403 calls)
     fft          :      0.45s CPU      0.46s WALL (    1722 calls)
     ffts         :      0.13s CPU      0.16s WALL (     238 calls)
     fftw         :     34.26s CPU     36.85s WALL (  815718 calls)
     interpolate  :      0.15s CPU      0.18s WALL (     122 calls)

     Parallel routines

     PWSCF        :   2m 1.37s CPU   2m 8.33s WALL


   This run was terminated on:  20:46:19  23Dec2024            

=------------------------------------------------------------------------------=
   JOB DONE.
=------------------------------------------------------------------------------=
