 INFO
nunit      1    1    1
unit   cell
celltype   primcell
shape   parapipedal
 END_INFO
 DIM-GROUP
           3           1
 PRIMVEC
    7.0118065830   -0.0469326490   -0.0130751010
    1.7326269450    3.0009978190   -0.0000000000
    1.7408428970    0.9955934360    2.8295269840
 CONVVEC
    7.0118065830   -0.0469326490   -0.0130751010
    1.7326269450    3.0009978190   -0.0000000000
    1.7408428970    0.9955934360    2.8295269840
 PRIMCOORD
           4           1
 25      5.2237933490     2.9860419070     2.1237816100    -0.0004541700     0.0002622100     0.0004396200
 25      8.7296951970     2.9625753490     2.1172459000    -0.0004533800     0.0002617600     0.0004393100
 16      0.0107349000    -0.0061977970    -0.0065353780     0.0004539800    -0.0002621100    -0.0004395500
 16      3.5166373990    -0.0296647230    -0.0130716660     0.0004535700    -0.0002618700    -0.0004393700
 CONVCOORD
           4           1
 25      5.2237933490     2.9860419070     2.1237816100
 25      8.7296951970     2.9625753490     2.1172459000
 16      0.0107349000    -0.0061977970    -0.0065353780
 16      3.5166373990    -0.0296647230    -0.0130716660
 RECIP-PRIMVEC
    0.1419589209   -0.0819600234   -0.0585007031

    0.0020024719    0.3320663737   -0.1180724174

    0.0006559850   -0.0003787331    0.3531456328

 RECIP-CONVVEC
    0.1419589209   -0.0819600234   -0.0585007031

    0.0020024719    0.3320663737   -0.1180724174

    0.0006559850   -0.0003787331    0.3531456328

 WIGNER-SEITZ-PRIMCELL
           4
 -0.3492419E+01  0.1568386E-01  0.1772608E-01  -0.5000000E+00 -0.8660254E+00 -0.4640542E-15
  0.9006858E+00 -0.2520676E+01 -0.1792655E+01  -0.5000000E+00 -0.8660254E+00 -0.4640542E-15
  0.1759792E+01 -0.3016682E+01 -0.1772608E-01  -0.5000000E+00 -0.8660254E+00 -0.4640542E-15
 -0.2633313E+01 -0.4803214E+00  0.1792655E+01  -0.5000000E+00 -0.8660254E+00 -0.4640542E-15
           6
 -0.1778734E+01  0.9953783E+00  0.2836064E+01  -0.8671236E+00  0.1715054E+00  0.4676350E+00
 -0.1778545E+01  0.1026842E+01  0.2824876E+01  -0.8671236E+00  0.1715054E+00  0.4676350E+00
 -0.2637651E+01  0.1522847E+01  0.1049947E+01  -0.8671236E+00  0.1715054E+00  0.4676350E+00
 -0.3492229E+01  0.4714783E-01  0.6538478E-02  -0.8671236E+00  0.1715054E+00  0.4676350E+00
 -0.3492419E+01  0.1568386E-01  0.1772608E-01  -0.8671236E+00  0.1715054E+00  0.4676350E+00
 -0.2633313E+01 -0.4803214E+00  0.1792655E+01  -0.8671236E+00  0.1715054E+00  0.4676350E+00
           6
 -0.2641529E+01  0.1525083E+01 -0.1036872E+01  -0.5019536E+00 -0.2870688E+00 -0.8158640E+00
  0.1751576E+01 -0.1011277E+01 -0.2847253E+01  -0.5019536E+00 -0.2870688E+00 -0.8158640E+00
  0.1751386E+01 -0.1042741E+01 -0.2836065E+01  -0.5019536E+00 -0.2870688E+00 -0.8158640E+00
  0.9006858E+00 -0.2520676E+01 -0.1792655E+01  -0.5019536E+00 -0.2870688E+00 -0.8158640E+00
 -0.3492419E+01  0.1568386E-01  0.1772608E-01  -0.5019536E+00 -0.2870688E+00 -0.8158640E+00
 -0.3492229E+01  0.4714783E-01  0.6538478E-02  -0.5019536E+00 -0.2870688E+00 -0.8158640E+00
           6
 -0.1751576E+01  0.1011277E+01  0.2847253E+01   0.2368985E-02 -0.5782377E+00  0.8158649E+00
 -0.1778734E+01  0.9953783E+00  0.2836064E+01   0.2368985E-02 -0.5782377E+00  0.8158649E+00
 -0.2633313E+01 -0.4803214E+00  0.1792655E+01   0.2368985E-02 -0.5782377E+00  0.8158649E+00
  0.1759792E+01 -0.3016682E+01 -0.1772608E-01   0.2368985E-02 -0.5782377E+00  0.8158649E+00
  0.1786950E+01 -0.3000783E+01 -0.6536623E-02   0.2368985E-02 -0.5782377E+00  0.8158649E+00
  0.2641529E+01 -0.1525083E+01  0.1036872E+01   0.2368985E-02 -0.5782377E+00  0.8158649E+00
           6
  0.9006858E+00 -0.2520676E+01 -0.1792655E+01   0.5820901E+00 -0.6651982E+00 -0.4676351E+00
  0.1751386E+01 -0.1042741E+01 -0.2836065E+01   0.5820901E+00 -0.6651982E+00 -0.4676351E+00
  0.1778545E+01 -0.1026842E+01 -0.2824876E+01   0.5820901E+00 -0.6651982E+00 -0.4676351E+00
  0.2637651E+01 -0.1522847E+01 -0.1049947E+01   0.5820901E+00 -0.6651982E+00 -0.4676351E+00
  0.1786950E+01 -0.3000783E+01 -0.6536623E-02   0.5820901E+00 -0.6651982E+00 -0.4676351E+00
  0.1759792E+01 -0.3016682E+01 -0.1772608E-01   0.5820901E+00 -0.6651982E+00 -0.4676351E+00
           4
 -0.2637651E+01  0.1522847E+01  0.1049947E+01  -0.8660238E+00  0.4999982E+00  0.2144907E-02
 -0.1786950E+01  0.3000783E+01  0.6536623E-02  -0.8660238E+00  0.4999982E+00  0.2144907E-02
 -0.2641529E+01  0.1525083E+01 -0.1036872E+01  -0.8660238E+00  0.4999982E+00  0.2144907E-02
 -0.3492229E+01  0.4714783E-01  0.6538478E-02  -0.8660238E+00  0.4999982E+00  0.2144907E-02
           6
 -0.1778545E+01  0.1026842E+01  0.2824876E+01  -0.5820901E+00  0.6651982E+00  0.4676351E+00
 -0.1751386E+01  0.1042741E+01  0.2836065E+01  -0.5820901E+00  0.6651982E+00  0.4676351E+00
 -0.9006858E+00  0.2520676E+01  0.1792655E+01  -0.5820901E+00  0.6651982E+00  0.4676351E+00
 -0.1759792E+01  0.3016682E+01  0.1772608E-01  -0.5820901E+00  0.6651982E+00  0.4676351E+00
 -0.1786950E+01  0.3000783E+01  0.6536623E-02  -0.5820901E+00  0.6651982E+00  0.4676351E+00
 -0.2637651E+01  0.1522847E+01  0.1049947E+01  -0.5820901E+00  0.6651982E+00  0.4676351E+00
           4
 -0.1751386E+01  0.1042741E+01  0.2836065E+01  -0.5053937E+00  0.2917896E+00  0.8120567E+00
 -0.1778545E+01  0.1026842E+01  0.2824876E+01  -0.5053937E+00  0.2917896E+00  0.8120567E+00
 -0.1778734E+01  0.9953783E+00  0.2836064E+01  -0.5053937E+00  0.2917896E+00  0.8120567E+00
 -0.1751576E+01  0.1011277E+01  0.2847253E+01  -0.5053937E+00  0.2917896E+00  0.8120567E+00
           6
  0.2633313E+01  0.4803214E+00 -0.1792655E+01  -0.2368985E-02  0.5782377E+00 -0.8158649E+00
  0.1778734E+01 -0.9953783E+00 -0.2836064E+01  -0.2368985E-02  0.5782377E+00 -0.8158649E+00
  0.1751576E+01 -0.1011277E+01 -0.2847253E+01  -0.2368985E-02  0.5782377E+00 -0.8158649E+00
 -0.2641529E+01  0.1525083E+01 -0.1036872E+01  -0.2368985E-02  0.5782377E+00 -0.8158649E+00
 -0.1786950E+01  0.3000783E+01  0.6536623E-02  -0.2368985E-02  0.5782377E+00 -0.8158649E+00
 -0.1759792E+01  0.3016682E+01  0.1772608E-01  -0.2368985E-02  0.5782377E+00 -0.8158649E+00
           4
  0.1778545E+01 -0.1026842E+01 -0.2824876E+01   0.5053937E+00 -0.2917896E+00 -0.8120567E+00
  0.1751386E+01 -0.1042741E+01 -0.2836065E+01   0.5053937E+00 -0.2917896E+00 -0.8120567E+00
  0.1751576E+01 -0.1011277E+01 -0.2847253E+01   0.5053937E+00 -0.2917896E+00 -0.8120567E+00
  0.1778734E+01 -0.9953783E+00 -0.2836064E+01   0.5053937E+00 -0.2917896E+00 -0.8120567E+00
           6
 -0.1751386E+01  0.1042741E+01  0.2836065E+01   0.5019536E+00  0.2870688E+00  0.8158640E+00
 -0.1751576E+01  0.1011277E+01  0.2847253E+01   0.5019536E+00  0.2870688E+00  0.8158640E+00
  0.2641529E+01 -0.1525083E+01  0.1036872E+01   0.5019536E+00  0.2870688E+00  0.8158640E+00
  0.3492229E+01 -0.4714783E-01 -0.6538478E-02   0.5019536E+00  0.2870688E+00  0.8158640E+00
  0.3492419E+01 -0.1568386E-01 -0.1772608E-01   0.5019536E+00  0.2870688E+00  0.8158640E+00
 -0.9006858E+00  0.2520676E+01  0.1792655E+01   0.5019536E+00  0.2870688E+00  0.8158640E+00
           4
  0.1786950E+01 -0.3000783E+01 -0.6536623E-02   0.8660238E+00 -0.4999982E+00 -0.2144907E-02
  0.2637651E+01 -0.1522847E+01 -0.1049947E+01   0.8660238E+00 -0.4999982E+00 -0.2144907E-02
  0.3492229E+01 -0.4714783E-01 -0.6538478E-02   0.8660238E+00 -0.4999982E+00 -0.2144907E-02
  0.2641529E+01 -0.1525083E+01  0.1036872E+01   0.8660238E+00 -0.4999982E+00 -0.2144907E-02
           6
  0.2637651E+01 -0.1522847E+01 -0.1049947E+01   0.8671236E+00 -0.1715054E+00 -0.4676350E+00
  0.1778545E+01 -0.1026842E+01 -0.2824876E+01   0.8671236E+00 -0.1715054E+00 -0.4676350E+00
  0.1778734E+01 -0.9953783E+00 -0.2836064E+01   0.8671236E+00 -0.1715054E+00 -0.4676350E+00
  0.2633313E+01  0.4803214E+00 -0.1792655E+01   0.8671236E+00 -0.1715054E+00 -0.4676350E+00
  0.3492419E+01 -0.1568386E-01 -0.1772608E-01   0.8671236E+00 -0.1715054E+00 -0.4676350E+00
  0.3492229E+01 -0.4714783E-01 -0.6538478E-02   0.8671236E+00 -0.1715054E+00 -0.4676350E+00
           4
 -0.9006858E+00  0.2520676E+01  0.1792655E+01   0.5000000E+00  0.8660254E+00  0.3700869E-15
  0.3492419E+01 -0.1568386E-01 -0.1772608E-01   0.5000000E+00  0.8660254E+00  0.3700869E-15
  0.2633313E+01  0.4803214E+00 -0.1792655E+01   0.5000000E+00  0.8660254E+00  0.3700869E-15
 -0.1759792E+01  0.3016682E+01  0.1772608E-01   0.5000000E+00  0.8660254E+00  0.3700869E-15
 WIGNER-SEITZ-PRIMCELL_END
 WIGNER-SEITZ-CONVCELL
           4
 -0.3492419E+01  0.1568386E-01  0.1772608E-01  -0.5000000E+00 -0.8660254E+00 -0.4640542E-15
  0.9006858E+00 -0.2520676E+01 -0.1792655E+01  -0.5000000E+00 -0.8660254E+00 -0.4640542E-15
  0.1759792E+01 -0.3016682E+01 -0.1772608E-01  -0.5000000E+00 -0.8660254E+00 -0.4640542E-15
 -0.2633313E+01 -0.4803214E+00  0.1792655E+01  -0.5000000E+00 -0.8660254E+00 -0.4640542E-15
           6
 -0.1778734E+01  0.9953783E+00  0.2836064E+01  -0.8671236E+00  0.1715054E+00  0.4676350E+00
 -0.1778545E+01  0.1026842E+01  0.2824876E+01  -0.8671236E+00  0.1715054E+00  0.4676350E+00
 -0.2637651E+01  0.1522847E+01  0.1049947E+01  -0.8671236E+00  0.1715054E+00  0.4676350E+00
 -0.3492229E+01  0.4714783E-01  0.6538478E-02  -0.8671236E+00  0.1715054E+00  0.4676350E+00
 -0.3492419E+01  0.1568386E-01  0.1772608E-01  -0.8671236E+00  0.1715054E+00  0.4676350E+00
 -0.2633313E+01 -0.4803214E+00  0.1792655E+01  -0.8671236E+00  0.1715054E+00  0.4676350E+00
           6
 -0.2641529E+01  0.1525083E+01 -0.1036872E+01  -0.5019536E+00 -0.2870688E+00 -0.8158640E+00
  0.1751576E+01 -0.1011277E+01 -0.2847253E+01  -0.5019536E+00 -0.2870688E+00 -0.8158640E+00
  0.1751386E+01 -0.1042741E+01 -0.2836065E+01  -0.5019536E+00 -0.2870688E+00 -0.8158640E+00
  0.9006858E+00 -0.2520676E+01 -0.1792655E+01  -0.5019536E+00 -0.2870688E+00 -0.8158640E+00
 -0.3492419E+01  0.1568386E-01  0.1772608E-01  -0.5019536E+00 -0.2870688E+00 -0.8158640E+00
 -0.3492229E+01  0.4714783E-01  0.6538478E-02  -0.5019536E+00 -0.2870688E+00 -0.8158640E+00
           6
 -0.1751576E+01  0.1011277E+01  0.2847253E+01   0.2368985E-02 -0.5782377E+00  0.8158649E+00
 -0.1778734E+01  0.9953783E+00  0.2836064E+01   0.2368985E-02 -0.5782377E+00  0.8158649E+00
 -0.2633313E+01 -0.4803214E+00  0.1792655E+01   0.2368985E-02 -0.5782377E+00  0.8158649E+00
  0.1759792E+01 -0.3016682E+01 -0.1772608E-01   0.2368985E-02 -0.5782377E+00  0.8158649E+00
  0.1786950E+01 -0.3000783E+01 -0.6536623E-02   0.2368985E-02 -0.5782377E+00  0.8158649E+00
  0.2641529E+01 -0.1525083E+01  0.1036872E+01   0.2368985E-02 -0.5782377E+00  0.8158649E+00
           6
  0.9006858E+00 -0.2520676E+01 -0.1792655E+01   0.5820901E+00 -0.6651982E+00 -0.4676351E+00
  0.1751386E+01 -0.1042741E+01 -0.2836065E+01   0.5820901E+00 -0.6651982E+00 -0.4676351E+00
  0.1778545E+01 -0.1026842E+01 -0.2824876E+01   0.5820901E+00 -0.6651982E+00 -0.4676351E+00
  0.2637651E+01 -0.1522847E+01 -0.1049947E+01   0.5820901E+00 -0.6651982E+00 -0.4676351E+00
  0.1786950E+01 -0.3000783E+01 -0.6536623E-02   0.5820901E+00 -0.6651982E+00 -0.4676351E+00
  0.1759792E+01 -0.3016682E+01 -0.1772608E-01   0.5820901E+00 -0.6651982E+00 -0.4676351E+00
           4
 -0.2637651E+01  0.1522847E+01  0.1049947E+01  -0.8660238E+00  0.4999982E+00  0.2144907E-02
 -0.1786950E+01  0.3000783E+01  0.6536623E-02  -0.8660238E+00  0.4999982E+00  0.2144907E-02
 -0.2641529E+01  0.1525083E+01 -0.1036872E+01  -0.8660238E+00  0.4999982E+00  0.2144907E-02
 -0.3492229E+01  0.4714783E-01  0.6538478E-02  -0.8660238E+00  0.4999982E+00  0.2144907E-02
           6
 -0.1778545E+01  0.1026842E+01  0.2824876E+01  -0.5820901E+00  0.6651982E+00  0.4676351E+00
 -0.1751386E+01  0.1042741E+01  0.2836065E+01  -0.5820901E+00  0.6651982E+00  0.4676351E+00
 -0.9006858E+00  0.2520676E+01  0.1792655E+01  -0.5820901E+00  0.6651982E+00  0.4676351E+00
 -0.1759792E+01  0.3016682E+01  0.1772608E-01  -0.5820901E+00  0.6651982E+00  0.4676351E+00
 -0.1786950E+01  0.3000783E+01  0.6536623E-02  -0.5820901E+00  0.6651982E+00  0.4676351E+00
 -0.2637651E+01  0.1522847E+01  0.1049947E+01  -0.5820901E+00  0.6651982E+00  0.4676351E+00
           4
 -0.1751386E+01  0.1042741E+01  0.2836065E+01  -0.5053937E+00  0.2917896E+00  0.8120567E+00
 -0.1778545E+01  0.1026842E+01  0.2824876E+01  -0.5053937E+00  0.2917896E+00  0.8120567E+00
 -0.1778734E+01  0.9953783E+00  0.2836064E+01  -0.5053937E+00  0.2917896E+00  0.8120567E+00
 -0.1751576E+01  0.1011277E+01  0.2847253E+01  -0.5053937E+00  0.2917896E+00  0.8120567E+00
           6
  0.2633313E+01  0.4803214E+00 -0.1792655E+01  -0.2368985E-02  0.5782377E+00 -0.8158649E+00
  0.1778734E+01 -0.9953783E+00 -0.2836064E+01  -0.2368985E-02  0.5782377E+00 -0.8158649E+00
  0.1751576E+01 -0.1011277E+01 -0.2847253E+01  -0.2368985E-02  0.5782377E+00 -0.8158649E+00
 -0.2641529E+01  0.1525083E+01 -0.1036872E+01  -0.2368985E-02  0.5782377E+00 -0.8158649E+00
 -0.1786950E+01  0.3000783E+01  0.6536623E-02  -0.2368985E-02  0.5782377E+00 -0.8158649E+00
 -0.1759792E+01  0.3016682E+01  0.1772608E-01  -0.2368985E-02  0.5782377E+00 -0.8158649E+00
           4
  0.1778545E+01 -0.1026842E+01 -0.2824876E+01   0.5053937E+00 -0.2917896E+00 -0.8120567E+00
  0.1751386E+01 -0.1042741E+01 -0.2836065E+01   0.5053937E+00 -0.2917896E+00 -0.8120567E+00
  0.1751576E+01 -0.1011277E+01 -0.2847253E+01   0.5053937E+00 -0.2917896E+00 -0.8120567E+00
  0.1778734E+01 -0.9953783E+00 -0.2836064E+01   0.5053937E+00 -0.2917896E+00 -0.8120567E+00
           6
 -0.1751386E+01  0.1042741E+01  0.2836065E+01   0.5019536E+00  0.2870688E+00  0.8158640E+00
 -0.1751576E+01  0.1011277E+01  0.2847253E+01   0.5019536E+00  0.2870688E+00  0.8158640E+00
  0.2641529E+01 -0.1525083E+01  0.1036872E+01   0.5019536E+00  0.2870688E+00  0.8158640E+00
  0.3492229E+01 -0.4714783E-01 -0.6538478E-02   0.5019536E+00  0.2870688E+00  0.8158640E+00
  0.3492419E+01 -0.1568386E-01 -0.1772608E-01   0.5019536E+00  0.2870688E+00  0.8158640E+00
 -0.9006858E+00  0.2520676E+01  0.1792655E+01   0.5019536E+00  0.2870688E+00  0.8158640E+00
           4
  0.1786950E+01 -0.3000783E+01 -0.6536623E-02   0.8660238E+00 -0.4999982E+00 -0.2144907E-02
  0.2637651E+01 -0.1522847E+01 -0.1049947E+01   0.8660238E+00 -0.4999982E+00 -0.2144907E-02
  0.3492229E+01 -0.4714783E-01 -0.6538478E-02   0.8660238E+00 -0.4999982E+00 -0.2144907E-02
  0.2641529E+01 -0.1525083E+01  0.1036872E+01   0.8660238E+00 -0.4999982E+00 -0.2144907E-02
           6
  0.2637651E+01 -0.1522847E+01 -0.1049947E+01   0.8671236E+00 -0.1715054E+00 -0.4676350E+00
  0.1778545E+01 -0.1026842E+01 -0.2824876E+01   0.8671236E+00 -0.1715054E+00 -0.4676350E+00
  0.1778734E+01 -0.9953783E+00 -0.2836064E+01   0.8671236E+00 -0.1715054E+00 -0.4676350E+00
  0.2633313E+01  0.4803214E+00 -0.1792655E+01   0.8671236E+00 -0.1715054E+00 -0.4676350E+00
  0.3492419E+01 -0.1568386E-01 -0.1772608E-01   0.8671236E+00 -0.1715054E+00 -0.4676350E+00
  0.3492229E+01 -0.4714783E-01 -0.6538478E-02   0.8671236E+00 -0.1715054E+00 -0.4676350E+00
           4
 -0.9006858E+00  0.2520676E+01  0.1792655E+01   0.5000000E+00  0.8660254E+00  0.3700869E-15
  0.3492419E+01 -0.1568386E-01 -0.1772608E-01   0.5000000E+00  0.8660254E+00  0.3700869E-15
  0.2633313E+01  0.4803214E+00 -0.1792655E+01   0.5000000E+00  0.8660254E+00  0.3700869E-15
 -0.1759792E+01  0.3016682E+01  0.1772608E-01   0.5000000E+00  0.8660254E+00  0.3700869E-15
 WIGNER-SEITZ-CONVCELL_END
 BRILLOUIN-ZONE-PRIMCELL
           6
  0.1928031E-01  0.1973148E+00  0.2924999E-01  -0.8156389E+00  0.4709093E+00  0.3361215E+00
 -0.7139763E-01  0.1454558E+00 -0.1181359E+00  -0.8156389E+00  0.4709093E+00  0.3361215E+00
 -0.1616672E+00 -0.1089568E-01 -0.1181359E+00  -0.8156389E+00  0.4709093E+00  0.3361215E+00
 -0.1612392E+00 -0.1153547E+00  0.2925071E-01  -0.8156389E+00  0.4709093E+00  0.3361215E+00
 -0.7056129E-01 -0.6349575E-01  0.1766366E+00  -0.8156389E+00  0.4709093E+00  0.3361215E+00
  0.1970827E-01  0.9285570E-01  0.1766366E+00  -0.8156389E+00  0.4709093E+00  0.3361215E+00
           4
  0.1970827E-01  0.9285570E-01  0.1766366E+00   0.1857544E-02 -0.1072453E-02  0.9999977E+00
 -0.7056129E-01 -0.6349575E-01  0.1766366E+00   0.1857544E-02 -0.1072453E-02  0.9999977E+00
 -0.1905228E-01 -0.9323444E-01  0.1765090E+00   0.1857544E-02 -0.1072453E-02  0.9999977E+00
  0.7121727E-01  0.6311702E-01  0.1765090E+00   0.1857544E-02 -0.1072453E-02  0.9999977E+00
           6
  0.1253371E+00  0.5241285E-01  0.1473225E+00   0.4274658E+00  0.7381548E+00  0.5219200E+00
  0.1249091E+00  0.1568719E+00 -0.6409093E-04   0.4274658E+00  0.7381548E+00  0.5219200E+00
  0.7340011E-01  0.1866106E+00  0.6348295E-04   0.4274658E+00  0.7381548E+00  0.5219200E+00
  0.1928031E-01  0.1973148E+00  0.2924999E-01   0.4274658E+00  0.7381548E+00  0.5219200E+00
  0.1970827E-01  0.9285570E-01  0.1766366E+00   0.4274658E+00  0.7381548E+00  0.5219200E+00
  0.7121727E-01  0.6311702E-01  0.1765090E+00   0.4274658E+00  0.7381548E+00  0.5219200E+00
           6
 -0.1905228E-01 -0.9323444E-01  0.1765090E+00  -0.4255264E+00 -0.7392736E+00  0.5219213E+00
 -0.7056129E-01 -0.6349575E-01  0.1766366E+00  -0.4255264E+00 -0.7392736E+00  0.5219213E+00
 -0.1612392E+00 -0.1153547E+00  0.2925071E-01  -0.4255264E+00 -0.7392736E+00  0.5219213E+00
 -0.1249091E+00 -0.1568719E+00  0.6409093E-04  -0.4255264E+00 -0.7392736E+00  0.5219213E+00
 -0.7340011E-01 -0.1866106E+00 -0.6348295E-04  -0.4255264E+00 -0.7392736E+00  0.5219213E+00
  0.1727784E-01 -0.1347516E+00  0.1473224E+00  -0.4255264E+00 -0.7392736E+00  0.5219213E+00
           4
  0.7340011E-01  0.1866106E+00  0.6348295E-04   0.5681756E-02  0.9421956E+00 -0.3350153E+00
 -0.1727784E-01  0.1347516E+00 -0.1473224E+00   0.5681756E-02  0.9421956E+00 -0.3350153E+00
 -0.7139763E-01  0.1454558E+00 -0.1181359E+00   0.5681756E-02  0.9421956E+00 -0.3350153E+00
  0.1928031E-01  0.1973148E+00  0.2924999E-01   0.5681756E-02  0.9421956E+00 -0.3350153E+00
           6
 -0.1727784E-01  0.1347516E+00 -0.1473224E+00  -0.4225106E+00  0.2439366E+00 -0.8729145E+00
  0.1905228E-01  0.9323444E-01 -0.1765090E+00  -0.4225106E+00  0.2439366E+00 -0.8729145E+00
 -0.7121727E-01 -0.6311702E-01 -0.1765090E+00  -0.4225106E+00  0.2439366E+00 -0.8729145E+00
 -0.1253371E+00 -0.5241285E-01 -0.1473225E+00  -0.4225106E+00  0.2439366E+00 -0.8729145E+00
 -0.1616672E+00 -0.1089568E-01 -0.1181359E+00  -0.4225106E+00  0.2439366E+00 -0.8729145E+00
 -0.7139763E-01  0.1454558E+00 -0.1181359E+00  -0.4225106E+00  0.2439366E+00 -0.8729145E+00
           4
 -0.1612392E+00 -0.1153547E+00  0.2925071E-01  -0.8131243E+00 -0.4760195E+00 -0.3350139E+00
 -0.1616672E+00 -0.1089568E-01 -0.1181359E+00  -0.8131243E+00 -0.4760195E+00 -0.3350139E+00
 -0.1253371E+00 -0.5241285E-01 -0.1473225E+00  -0.8131243E+00 -0.4760195E+00 -0.3350139E+00
 -0.1249091E+00 -0.1568719E+00  0.6409093E-04  -0.8131243E+00 -0.4760195E+00 -0.3350139E+00
           6
  0.7121727E-01  0.6311702E-01  0.1765090E+00   0.4225106E+00 -0.2439366E+00  0.8729145E+00
 -0.1905228E-01 -0.9323444E-01  0.1765090E+00   0.4225106E+00 -0.2439366E+00  0.8729145E+00
  0.1727784E-01 -0.1347516E+00  0.1473224E+00   0.4225106E+00 -0.2439366E+00  0.8729145E+00
  0.7139763E-01 -0.1454558E+00  0.1181359E+00   0.4225106E+00 -0.2439366E+00  0.8729145E+00
  0.1616672E+00  0.1089568E-01  0.1181359E+00   0.4225106E+00 -0.2439366E+00  0.8729145E+00
  0.1253371E+00  0.5241285E-01  0.1473225E+00   0.4225106E+00 -0.2439366E+00  0.8729145E+00
           6
  0.1612392E+00  0.1153547E+00 -0.2925071E-01   0.4255264E+00  0.7392736E+00 -0.5219213E+00
  0.7056129E-01  0.6349575E-01 -0.1766366E+00   0.4255264E+00  0.7392736E+00 -0.5219213E+00
  0.1905228E-01  0.9323444E-01 -0.1765090E+00   0.4255264E+00  0.7392736E+00 -0.5219213E+00
 -0.1727784E-01  0.1347516E+00 -0.1473224E+00   0.4255264E+00  0.7392736E+00 -0.5219213E+00
  0.7340011E-01  0.1866106E+00  0.6348295E-04   0.4255264E+00  0.7392736E+00 -0.5219213E+00
  0.1249091E+00  0.1568719E+00 -0.6409093E-04   0.4255264E+00  0.7392736E+00 -0.5219213E+00
           4
  0.1616672E+00  0.1089568E-01  0.1181359E+00   0.8131243E+00  0.4760195E+00  0.3350139E+00
  0.1612392E+00  0.1153547E+00 -0.2925071E-01   0.8131243E+00  0.4760195E+00  0.3350139E+00
  0.1249091E+00  0.1568719E+00 -0.6409093E-04   0.8131243E+00  0.4760195E+00  0.3350139E+00
  0.1253371E+00  0.5241285E-01  0.1473225E+00   0.8131243E+00  0.4760195E+00  0.3350139E+00
           6
 -0.7340011E-01 -0.1866106E+00 -0.6348295E-04  -0.4274658E+00 -0.7381548E+00 -0.5219200E+00
 -0.1249091E+00 -0.1568719E+00  0.6409093E-04  -0.4274658E+00 -0.7381548E+00 -0.5219200E+00
 -0.1253371E+00 -0.5241285E-01 -0.1473225E+00  -0.4274658E+00 -0.7381548E+00 -0.5219200E+00
 -0.7121727E-01 -0.6311702E-01 -0.1765090E+00  -0.4274658E+00 -0.7381548E+00 -0.5219200E+00
 -0.1970827E-01 -0.9285570E-01 -0.1766366E+00  -0.4274658E+00 -0.7381548E+00 -0.5219200E+00
 -0.1928031E-01 -0.1973148E+00 -0.2924999E-01  -0.4274658E+00 -0.7381548E+00 -0.5219200E+00
           4
  0.1727784E-01 -0.1347516E+00  0.1473224E+00  -0.5681756E-02 -0.9421956E+00  0.3350153E+00
 -0.7340011E-01 -0.1866106E+00 -0.6348295E-04  -0.5681756E-02 -0.9421956E+00  0.3350153E+00
 -0.1928031E-01 -0.1973148E+00 -0.2924999E-01  -0.5681756E-02 -0.9421956E+00  0.3350153E+00
  0.7139763E-01 -0.1454558E+00  0.1181359E+00  -0.5681756E-02 -0.9421956E+00  0.3350153E+00
           4
  0.7056129E-01  0.6349575E-01 -0.1766366E+00  -0.1857544E-02  0.1072453E-02 -0.9999977E+00
 -0.1970827E-01 -0.9285570E-01 -0.1766366E+00  -0.1857544E-02  0.1072453E-02 -0.9999977E+00
 -0.7121727E-01 -0.6311702E-01 -0.1765090E+00  -0.1857544E-02  0.1072453E-02 -0.9999977E+00
  0.1905228E-01  0.9323444E-01 -0.1765090E+00  -0.1857544E-02  0.1072453E-02 -0.9999977E+00
           6
  0.1616672E+00  0.1089568E-01  0.1181359E+00   0.8156389E+00 -0.4709093E+00 -0.3361215E+00
  0.7139763E-01 -0.1454558E+00  0.1181359E+00   0.8156389E+00 -0.4709093E+00 -0.3361215E+00
 -0.1928031E-01 -0.1973148E+00 -0.2924999E-01   0.8156389E+00 -0.4709093E+00 -0.3361215E+00
 -0.1970827E-01 -0.9285570E-01 -0.1766366E+00   0.8156389E+00 -0.4709093E+00 -0.3361215E+00
  0.7056129E-01  0.6349575E-01 -0.1766366E+00   0.8156389E+00 -0.4709093E+00 -0.3361215E+00
  0.1612392E+00  0.1153547E+00 -0.2925071E-01   0.8156389E+00 -0.4709093E+00 -0.3361215E+00
 BRILLOUIN-ZONE-PRIMCELL_END
 BRILLOUIN-ZONE-CONVCELL
           6
  0.1928031E-01  0.1973148E+00  0.2924999E-01  -0.8156389E+00  0.4709093E+00  0.3361215E+00
 -0.7139763E-01  0.1454558E+00 -0.1181359E+00  -0.8156389E+00  0.4709093E+00  0.3361215E+00
 -0.1616672E+00 -0.1089568E-01 -0.1181359E+00  -0.8156389E+00  0.4709093E+00  0.3361215E+00
 -0.1612392E+00 -0.1153547E+00  0.2925071E-01  -0.8156389E+00  0.4709093E+00  0.3361215E+00
 -0.7056129E-01 -0.6349575E-01  0.1766366E+00  -0.8156389E+00  0.4709093E+00  0.3361215E+00
  0.1970827E-01  0.9285570E-01  0.1766366E+00  -0.8156389E+00  0.4709093E+00  0.3361215E+00
           4
  0.1970827E-01  0.9285570E-01  0.1766366E+00   0.1857544E-02 -0.1072453E-02  0.9999977E+00
 -0.7056129E-01 -0.6349575E-01  0.1766366E+00   0.1857544E-02 -0.1072453E-02  0.9999977E+00
 -0.1905228E-01 -0.9323444E-01  0.1765090E+00   0.1857544E-02 -0.1072453E-02  0.9999977E+00
  0.7121727E-01  0.6311702E-01  0.1765090E+00   0.1857544E-02 -0.1072453E-02  0.9999977E+00
           6
  0.1253371E+00  0.5241285E-01  0.1473225E+00   0.4274658E+00  0.7381548E+00  0.5219200E+00
  0.1249091E+00  0.1568719E+00 -0.6409093E-04   0.4274658E+00  0.7381548E+00  0.5219200E+00
  0.7340011E-01  0.1866106E+00  0.6348295E-04   0.4274658E+00  0.7381548E+00  0.5219200E+00
  0.1928031E-01  0.1973148E+00  0.2924999E-01   0.4274658E+00  0.7381548E+00  0.5219200E+00
  0.1970827E-01  0.9285570E-01  0.1766366E+00   0.4274658E+00  0.7381548E+00  0.5219200E+00
  0.7121727E-01  0.6311702E-01  0.1765090E+00   0.4274658E+00  0.7381548E+00  0.5219200E+00
           6
 -0.1905228E-01 -0.9323444E-01  0.1765090E+00  -0.4255264E+00 -0.7392736E+00  0.5219213E+00
 -0.7056129E-01 -0.6349575E-01  0.1766366E+00  -0.4255264E+00 -0.7392736E+00  0.5219213E+00
 -0.1612392E+00 -0.1153547E+00  0.2925071E-01  -0.4255264E+00 -0.7392736E+00  0.5219213E+00
 -0.1249091E+00 -0.1568719E+00  0.6409093E-04  -0.4255264E+00 -0.7392736E+00  0.5219213E+00
 -0.7340011E-01 -0.1866106E+00 -0.6348295E-04  -0.4255264E+00 -0.7392736E+00  0.5219213E+00
  0.1727784E-01 -0.1347516E+00  0.1473224E+00  -0.4255264E+00 -0.7392736E+00  0.5219213E+00
           4
  0.7340011E-01  0.1866106E+00  0.6348295E-04   0.5681756E-02  0.9421956E+00 -0.3350153E+00
 -0.1727784E-01  0.1347516E+00 -0.1473224E+00   0.5681756E-02  0.9421956E+00 -0.3350153E+00
 -0.7139763E-01  0.1454558E+00 -0.1181359E+00   0.5681756E-02  0.9421956E+00 -0.3350153E+00
  0.1928031E-01  0.1973148E+00  0.2924999E-01   0.5681756E-02  0.9421956E+00 -0.3350153E+00
           6
 -0.1727784E-01  0.1347516E+00 -0.1473224E+00  -0.4225106E+00  0.2439366E+00 -0.8729145E+00
  0.1905228E-01  0.9323444E-01 -0.1765090E+00  -0.4225106E+00  0.2439366E+00 -0.8729145E+00
 -0.7121727E-01 -0.6311702E-01 -0.1765090E+00  -0.4225106E+00  0.2439366E+00 -0.8729145E+00
 -0.1253371E+00 -0.5241285E-01 -0.1473225E+00  -0.4225106E+00  0.2439366E+00 -0.8729145E+00
 -0.1616672E+00 -0.1089568E-01 -0.1181359E+00  -0.4225106E+00  0.2439366E+00 -0.8729145E+00
 -0.7139763E-01  0.1454558E+00 -0.1181359E+00  -0.4225106E+00  0.2439366E+00 -0.8729145E+00
           4
 -0.1612392E+00 -0.1153547E+00  0.2925071E-01  -0.8131243E+00 -0.4760195E+00 -0.3350139E+00
 -0.1616672E+00 -0.1089568E-01 -0.1181359E+00  -0.8131243E+00 -0.4760195E+00 -0.3350139E+00
 -0.1253371E+00 -0.5241285E-01 -0.1473225E+00  -0.8131243E+00 -0.4760195E+00 -0.3350139E+00
 -0.1249091E+00 -0.1568719E+00  0.6409093E-04  -0.8131243E+00 -0.4760195E+00 -0.3350139E+00
           6
  0.7121727E-01  0.6311702E-01  0.1765090E+00   0.4225106E+00 -0.2439366E+00  0.8729145E+00
 -0.1905228E-01 -0.9323444E-01  0.1765090E+00   0.4225106E+00 -0.2439366E+00  0.8729145E+00
  0.1727784E-01 -0.1347516E+00  0.1473224E+00   0.4225106E+00 -0.2439366E+00  0.8729145E+00
  0.7139763E-01 -0.1454558E+00  0.1181359E+00   0.4225106E+00 -0.2439366E+00  0.8729145E+00
  0.1616672E+00  0.1089568E-01  0.1181359E+00   0.4225106E+00 -0.2439366E+00  0.8729145E+00
  0.1253371E+00  0.5241285E-01  0.1473225E+00   0.4225106E+00 -0.2439366E+00  0.8729145E+00
           6
  0.1612392E+00  0.1153547E+00 -0.2925071E-01   0.4255264E+00  0.7392736E+00 -0.5219213E+00
  0.7056129E-01  0.6349575E-01 -0.1766366E+00   0.4255264E+00  0.7392736E+00 -0.5219213E+00
  0.1905228E-01  0.9323444E-01 -0.1765090E+00   0.4255264E+00  0.7392736E+00 -0.5219213E+00
 -0.1727784E-01  0.1347516E+00 -0.1473224E+00   0.4255264E+00  0.7392736E+00 -0.5219213E+00
  0.7340011E-01  0.1866106E+00  0.6348295E-04   0.4255264E+00  0.7392736E+00 -0.5219213E+00
  0.1249091E+00  0.1568719E+00 -0.6409093E-04   0.4255264E+00  0.7392736E+00 -0.5219213E+00
           4
  0.1616672E+00  0.1089568E-01  0.1181359E+00   0.8131243E+00  0.4760195E+00  0.3350139E+00
  0.1612392E+00  0.1153547E+00 -0.2925071E-01   0.8131243E+00  0.4760195E+00  0.3350139E+00
  0.1249091E+00  0.1568719E+00 -0.6409093E-04   0.8131243E+00  0.4760195E+00  0.3350139E+00
  0.1253371E+00  0.5241285E-01  0.1473225E+00   0.8131243E+00  0.4760195E+00  0.3350139E+00
           6
 -0.7340011E-01 -0.1866106E+00 -0.6348295E-04  -0.4274658E+00 -0.7381548E+00 -0.5219200E+00
 -0.1249091E+00 -0.1568719E+00  0.6409093E-04  -0.4274658E+00 -0.7381548E+00 -0.5219200E+00
 -0.1253371E+00 -0.5241285E-01 -0.1473225E+00  -0.4274658E+00 -0.7381548E+00 -0.5219200E+00
 -0.7121727E-01 -0.6311702E-01 -0.1765090E+00  -0.4274658E+00 -0.7381548E+00 -0.5219200E+00
 -0.1970827E-01 -0.9285570E-01 -0.1766366E+00  -0.4274658E+00 -0.7381548E+00 -0.5219200E+00
 -0.1928031E-01 -0.1973148E+00 -0.2924999E-01  -0.4274658E+00 -0.7381548E+00 -0.5219200E+00
           4
  0.1727784E-01 -0.1347516E+00  0.1473224E+00  -0.5681756E-02 -0.9421956E+00  0.3350153E+00
 -0.7340011E-01 -0.1866106E+00 -0.6348295E-04  -0.5681756E-02 -0.9421956E+00  0.3350153E+00
 -0.1928031E-01 -0.1973148E+00 -0.2924999E-01  -0.5681756E-02 -0.9421956E+00  0.3350153E+00
  0.7139763E-01 -0.1454558E+00  0.1181359E+00  -0.5681756E-02 -0.9421956E+00  0.3350153E+00
           4
  0.7056129E-01  0.6349575E-01 -0.1766366E+00  -0.1857544E-02  0.1072453E-02 -0.9999977E+00
 -0.1970827E-01 -0.9285570E-01 -0.1766366E+00  -0.1857544E-02  0.1072453E-02 -0.9999977E+00
 -0.7121727E-01 -0.6311702E-01 -0.1765090E+00  -0.1857544E-02  0.1072453E-02 -0.9999977E+00
  0.1905228E-01  0.9323444E-01 -0.1765090E+00  -0.1857544E-02  0.1072453E-02 -0.9999977E+00
           6
  0.1616672E+00  0.1089568E-01  0.1181359E+00   0.8156389E+00 -0.4709093E+00 -0.3361215E+00
  0.7139763E-01 -0.1454558E+00  0.1181359E+00   0.8156389E+00 -0.4709093E+00 -0.3361215E+00
 -0.1928031E-01 -0.1973148E+00 -0.2924999E-01   0.8156389E+00 -0.4709093E+00 -0.3361215E+00
 -0.1970827E-01 -0.9285570E-01 -0.1766366E+00   0.8156389E+00 -0.4709093E+00 -0.3361215E+00
  0.7056129E-01  0.6349575E-01 -0.1766366E+00   0.8156389E+00 -0.4709093E+00 -0.3361215E+00
  0.1612392E+00  0.1153547E+00 -0.2925071E-01   0.8156389E+00 -0.4709093E+00 -0.3361215E+00
 BRILLOUIN-ZONE-CONVCELL_END
 ATOMS
   25    5.2237933490    2.9860419070    2.1237816100   -0.0004541700    0.0002622100    0.0004396200
   25    8.7296951970    2.9625753490    2.1172459000   -0.0004533800    0.0002617600    0.0004393100
   16    3.4842047420    3.9903934580    2.8229916060    0.0004539800   -0.0002621100   -0.0004395500
   16    6.9901072410    3.9669265320    2.8164553180    0.0004535700   -0.0002618700   -0.0004393700
 FRAMES
1      0.0000000000    0.0000000000    0.0000000000      7.0118065830   -0.0469326490   -0.0130751010
1      0.0000000000    0.0000000000    0.0000000000      1.7326269450    3.0009978190    0.0000000000
1      0.0000000000    0.0000000000    0.0000000000      1.7408428970    0.9955934360    2.8295269840
1      1.7408428970    0.9955934360    2.8295269840      8.7526494800    0.9486607870    2.8164518830
1      1.7408428970    0.9955934360    2.8295269840      3.4734698420    3.9965912550    2.8295269840
1      1.7326269450    3.0009978190    0.0000000000      8.7444335280    2.9540651700   -0.0130751010