
     Program PWSCF v.7.3.1 starts on 31Jan2025 at 16:51:44 

     This program is part of the open-source Quantum ESPRESSO suite
     for quantum simulation of materials; please cite
         "P. Giannozzi et al., J. Phys.:Condens. Matter 21 395502 (2009);
         "P. Giannozzi et al., J. Phys.:Condens. Matter 29 465901 (2017);
         "P. Giannozzi et al., J. Chem. Phys. 152 154105 (2020);
          URL http://www.quantum-espresso.org", 
     in publications or presentations arising from this work. More details at
     http://www.quantum-espresso.org/quote

     Parallel version (MPI), running on     6 processors

     MPI processes distributed on     1 nodes
     2498 MiB available memory on the printing compute node when the environment starts

     Reading input from vc_relax.in

     Current dimensions of program PWSCF are:
     Max number of different atomic species (ntypx) = 10
     Max number of k-points (npk) =  40000
     Max angular momentum in pseudopotentials (lmaxx) =  4
     file Mn.pbe-spn-kjpaw_psl.0.3.1.UPF: wavefunction(s)  3P 3D renormalized
     file Mn.pbe-spn-kjpaw_psl.0.3.1.UPF: wavefunction(s)  3P 3D renormalized
     file S.pbe-n-kjpaw_psl.1.0.0.UPF: wavefunction(s)  3S 3P renormalized
     Message from routine setup:
     using ibrav=0 with symmetry is DISCOURAGED, use correct ibrav instead

     R & G space division:  proc/nbgrp/npool/nimage =       6
     Subspace diagonalization in iterative solution of the eigenvalue problem:
     a serial algorithm will be used


     Parallelization info
     --------------------
     sticks:   dense  smooth     PW     G-vecs:    dense   smooth      PW
     Min         185     150     48                 2941     2116     382
     Max         188     151     50                 2942     2117     383
     Sum        1121     901    295                17651    12697    2297

     Using Slab Decomposition



     bravais-lattice index     =            0
     lattice parameter (alat)  =      14.7866  a.u.
     unit-cell volume          =     571.5148 (a.u.)^3
     number of atoms/cell      =            4
     number of atomic types    =            3
     number of electrons       =        42.00
     number of Kohn-Sham states=           25
     kinetic-energy cutoff     =      30.0000  Ry
     charge density cutoff     =     150.0000  Ry
     scf convergence threshold =      1.0E-10
     mixing beta               =       0.7000
     number of iterations used =            8  plain     mixing
     energy convergence thresh.=      1.0E-05
     force convergence thresh. =      1.0E-04
     press convergence thresh. =      5.0E-01
     Exchange-correlation= SLA  PW   PBX  PBC
                           (   1   4   3   4   0   0   0)
     nstep                     =           50


     celldm(1)=  14.786571  celldm(2)=   0.000000  celldm(3)=   0.000000
     celldm(4)=   0.000000  celldm(5)=   0.000000  celldm(6)=   0.000000

     crystal axes: (cart. coord. in units of alat)
               a(1) = (   1.000000   0.000000   0.000000 )  
               a(2) = (   0.250000   0.433013   0.000000 )  
               a(3) = (   0.250000   0.144338   0.408248 )  

     reciprocal axes: (cart. coord. in units 2 pi/alat)
               b(1) = (  1.000000 -0.577350 -0.408248 )  
               b(2) = (  0.000000  2.309401 -0.816496 )  
               b(3) = (  0.000000  0.000000  2.449490 )  


     PseudoPot. # 1 for Mn read from file:
     ./../../../pseudos/Mn.pbe-spn-kjpaw_psl.0.3.1.UPF
     MD5 check sum: ba19e6d7ccbc12830efad05ba8577d9c
     Pseudo is Projector augmented-wave + core cor, Zval = 15.0
     Generated using &quot;atomic&quot; code by A. Dal Corso  v.6.2.2
     Shape of augmentation charge: PSQ
     Using radial grid of 1187 points,  6 beta functions with: 
                l(1) =   0
                l(2) =   0
                l(3) =   1
                l(4) =   1
                l(5) =   2
                l(6) =   2
     Q(r) pseudized with 0 coefficients 


     PseudoPot. # 2 for Mn read from file:
     ./../../../pseudos/Mn.pbe-spn-kjpaw_psl.0.3.1.UPF
     MD5 check sum: ba19e6d7ccbc12830efad05ba8577d9c
     Pseudo is Projector augmented-wave + core cor, Zval = 15.0
     Generated using &quot;atomic&quot; code by A. Dal Corso  v.6.2.2
     Shape of augmentation charge: PSQ
     Using radial grid of 1187 points,  6 beta functions with: 
                l(1) =   0
                l(2) =   0
                l(3) =   1
                l(4) =   1
                l(5) =   2
                l(6) =   2
     Q(r) pseudized with 0 coefficients 


     PseudoPot. # 3 for S  read from file:
     ./../../../pseudos/S.pbe-n-kjpaw_psl.1.0.0.UPF
     MD5 check sum: fb45dfebcf3e72a4e1bd4a866ec2e262
     Pseudo is Projector augmented-wave + core cor, Zval =  6.0
     Generated using &quot;atomic&quot; code by A. Dal Corso  v.6.3
     Shape of augmentation charge: PSQ
     Using radial grid of 1151 points,  6 beta functions with: 
                l(1) =   0
                l(2) =   0
                l(3) =   1
                l(4) =   1
                l(5) =   2
                l(6) =   2
     Q(r) pseudized with 0 coefficients 


     atomic species   valence    mass     pseudopotential
     Mn1              15.00    54.93800     Mn( 1.00)
     Mn2              15.00    54.93800     Mn( 1.00)
     S                 6.00    32.06500     S ( 1.00)

      2 Sym. Ops. (no inversion) found


                                    s                        frac. trans.

      isym =  1     identity                                     

 cryst.   s( 1) = (     1          0          0      )
                  (     0          1          0      )
                  (     0          0          1      )

 cart.    s( 1) = (  1.0000000  0.0000000  0.0000000 )
                  (  0.0000000  1.0000000  0.0000000 )
                  (  0.0000000  0.0000000  1.0000000 )


      isym =  2     inv. 180 deg rotation - cryst. axis [1,1,0]  

 cryst.   s( 2) = (     1         -2          0      )
                  (     0         -1          0      )
                  (     0         -1          1      )

 cart.    s( 2) = (  0.5000001 -0.8660253 -0.0000000 )
                  ( -0.8660254 -0.5000001 -0.0000001 )
                  (  0.0000000  0.0000000  1.0000000 )


   Cartesian axes

     site n.     atom                  positions (alat units)
         1        Mn1    tau(   1) = (   0.7491997   0.4334747   0.3066829  )
         2        Mn2    tau(   2) = (   1.2491999   0.4334746   0.3066829  )
         3        S      tau(   3) = (   0.5008002   0.5768883   0.4077516  )
         4        S      tau(   4) = (   1.0008000   0.5768884   0.4077517  )

   Crystallographic axes

     site n.     atom                  positions (cryst. coord.)
         1        Mn1    tau(   1) = (  0.3737302  0.7506614  0.7512167  )
         2        Mn2    tau(   2) = (  0.8737305  0.7506612  0.7512165  )
         3        S      tau(   3) = (  0.0012697  0.9993386  0.9987833  )
         4        S      tau(   4) = (  0.5012695  0.9993387  0.9987835  )

     number of k points=    38  Gaussian smearing, width (Ry)=  0.0100
                       cart. coord. in units 2pi/alat
        k(    1) = (   0.0000000   0.0000000   0.0000000), wk =   0.0266667
        k(    2) = (   0.0000000   0.0000000   0.4898979), wk =   0.0533333
        k(    3) = (   0.0000000   0.0000000   0.9797958), wk =   0.0533333
        k(    4) = (   0.0000000   0.4618802  -0.1632993), wk =   0.0533333
        k(    5) = (   0.0000000   0.4618802   0.3265986), wk =   0.0533333
        k(    6) = (   0.0000000   0.4618802   0.8164966), wk =   0.0533333
        k(    7) = (   0.0000000   0.4618802  -1.1430951), wk =   0.0533333
        k(    8) = (   0.0000000   0.4618802  -0.6531972), wk =   0.0533333
        k(    9) = (   0.0000000   0.9237604  -0.3265986), wk =   0.0533333
        k(   10) = (   0.0000000   0.9237604   0.1632993), wk =   0.0533333
        k(   11) = (   0.0000000   0.9237604   0.6531973), wk =   0.0533333
        k(   12) = (   0.0000000   0.9237604  -1.3063944), wk =   0.0533333
        k(   13) = (   0.0000000   0.9237604  -0.8164965), wk =   0.0533333
        k(   14) = (   0.3333333  -0.1924501  -0.1360827), wk =   0.0533333
        k(   15) = (   0.3333333  -0.1924501   0.3538152), wk =   0.0533333
        k(   16) = (   0.3333333  -0.1924501   0.8437131), wk =   0.0533333
        k(   17) = (   0.3333333  -0.1924501  -1.1158786), wk =   0.0533333
        k(   18) = (   0.3333333  -0.1924501  -0.6259807), wk =   0.0533333
        k(   19) = (   0.3333333   0.2694301  -0.2993820), wk =   0.0533333
        k(   20) = (   0.3333333   0.2694301   0.1905159), wk =   0.0533333
        k(   21) = (   0.3333333   0.2694301   0.6804138), wk =   0.0533333
        k(   22) = (   0.3333333   0.2694301  -1.2791779), wk =   0.0533333
        k(   23) = (   0.3333333   0.2694301  -0.7892800), wk =   0.0533333
        k(   24) = (   0.3333333   0.7313103  -0.4626813), wk =   0.0533333
        k(   25) = (   0.3333333   0.7313103   0.0272166), wk =   0.0533333
        k(   26) = (   0.3333333   0.7313103   0.5171145), wk =   0.0533333
        k(   27) = (   0.3333333   0.7313103  -1.4424772), wk =   0.0533333
        k(   28) = (   0.3333333   0.7313103  -0.9525793), wk =   0.0533333
        k(   29) = (   0.3333333  -1.1162105   0.1905158), wk =   0.0533333
        k(   30) = (   0.3333333  -1.1162105   0.6804138), wk =   0.0533333
        k(   31) = (   0.3333333  -1.1162105   1.1703117), wk =   0.0533333
        k(   32) = (   0.3333333  -1.1162105  -0.7892800), wk =   0.0533333
        k(   33) = (   0.3333333  -1.1162105  -0.2993821), wk =   0.0533333
        k(   34) = (   0.3333333  -0.6543303   0.0272165), wk =   0.0533333
        k(   35) = (   0.3333333  -0.6543303   0.5171145), wk =   0.0533333
        k(   36) = (   0.3333333  -0.6543303   1.0070124), wk =   0.0533333
        k(   37) = (   0.3333333  -0.6543303  -0.9525793), wk =   0.0533333
        k(   38) = (   0.3333333  -0.6543303  -0.4626814), wk =   0.0533333

                       cryst. coord.
        k(    1) = (   0.0000000   0.0000000   0.0000000), wk =   0.0266667
        k(    2) = (   0.0000000   0.0000000   0.2000000), wk =   0.0533333
        k(    3) = (   0.0000000   0.0000000   0.4000000), wk =   0.0533333
        k(    4) = (   0.0000000   0.2000000   0.0000000), wk =   0.0533333
        k(    5) = (   0.0000000   0.2000000   0.2000000), wk =   0.0533333
        k(    6) = (   0.0000000   0.2000000   0.4000000), wk =   0.0533333
        k(    7) = (   0.0000000   0.2000000  -0.4000000), wk =   0.0533333
        k(    8) = (   0.0000000   0.2000000  -0.2000000), wk =   0.0533333
        k(    9) = (   0.0000000   0.4000000   0.0000000), wk =   0.0533333
        k(   10) = (   0.0000000   0.4000000   0.2000000), wk =   0.0533333
        k(   11) = (   0.0000000   0.4000000   0.4000000), wk =   0.0533333
        k(   12) = (   0.0000000   0.4000000  -0.4000000), wk =   0.0533333
        k(   13) = (   0.0000000   0.4000000  -0.2000000), wk =   0.0533333
        k(   14) = (   0.3333333  -0.0000000  -0.0000000), wk =   0.0533333
        k(   15) = (   0.3333333  -0.0000000   0.2000000), wk =   0.0533333
        k(   16) = (   0.3333333  -0.0000000   0.4000000), wk =   0.0533333
        k(   17) = (   0.3333333  -0.0000000  -0.4000000), wk =   0.0533333
        k(   18) = (   0.3333333  -0.0000000  -0.2000000), wk =   0.0533333
        k(   19) = (   0.3333333   0.2000000  -0.0000000), wk =   0.0533333
        k(   20) = (   0.3333333   0.2000000   0.2000000), wk =   0.0533333
        k(   21) = (   0.3333333   0.2000000   0.4000000), wk =   0.0533333
        k(   22) = (   0.3333333   0.2000000  -0.4000000), wk =   0.0533333
        k(   23) = (   0.3333333   0.2000000  -0.2000000), wk =   0.0533333
        k(   24) = (   0.3333333   0.4000000   0.0000000), wk =   0.0533333
        k(   25) = (   0.3333333   0.4000000   0.2000000), wk =   0.0533333
        k(   26) = (   0.3333333   0.4000000   0.4000000), wk =   0.0533333
        k(   27) = (   0.3333333   0.4000000  -0.4000000), wk =   0.0533333
        k(   28) = (   0.3333333   0.4000000  -0.2000000), wk =   0.0533333
        k(   29) = (   0.3333333  -0.4000000   0.0000000), wk =   0.0533333
        k(   30) = (   0.3333333  -0.4000000   0.2000000), wk =   0.0533333
        k(   31) = (   0.3333333  -0.4000000   0.4000000), wk =   0.0533333
        k(   32) = (   0.3333333  -0.4000000  -0.4000000), wk =   0.0533333
        k(   33) = (   0.3333333  -0.4000000  -0.2000000), wk =   0.0533333
        k(   34) = (   0.3333333  -0.2000000  -0.0000000), wk =   0.0533333
        k(   35) = (   0.3333333  -0.2000000   0.2000000), wk =   0.0533333
        k(   36) = (   0.3333333  -0.2000000   0.4000000), wk =   0.0533333
        k(   37) = (   0.3333333  -0.2000000  -0.4000000), wk =   0.0533333
        k(   38) = (   0.3333333  -0.2000000  -0.2000000), wk =   0.0533333

     Dense  grid:    17651 G-vectors     FFT dimensions: (  60,  30,  30)

     Smooth grid:    12697 G-vectors     FFT dimensions: (  54,  25,  25)

     Dynamical RAM for                 wfc:       0.10 MB

     Dynamical RAM for     wfc (w. buffer):       3.93 MB

     Dynamical RAM for           str. fact:       0.13 MB

     Dynamical RAM for           local pot:       0.00 MB

     Dynamical RAM for          nlocal pot:       0.29 MB

     Dynamical RAM for                qrad:       5.90 MB

     Dynamical RAM for          rho,v,vnew:       0.34 MB

     Dynamical RAM for               rhoin:       0.11 MB

     Dynamical RAM for            rho*nmix:       0.72 MB

     Dynamical RAM for           G-vectors:       0.18 MB

     Dynamical RAM for          h,s,v(r/c):       0.11 MB

     Dynamical RAM for          <psi|beta>:       0.03 MB

     Dynamical RAM for                 psi:       0.20 MB

     Dynamical RAM for                hpsi:       0.20 MB

     Dynamical RAM for                spsi:       0.20 MB

     Dynamical RAM for      wfcinit/wfcrot:       0.24 MB

     Dynamical RAM for           addusdens:       8.44 MB

     Dynamical RAM for          addusforce:       8.56 MB

     Dynamical RAM for         addusstress:       9.02 MB

     Estimated static dynamical RAM per process >      11.42 MB

     Estimated max dynamical RAM per process >      21.16 MB

     Estimated total dynamical RAM >     126.96 MB

     Check: negative core charge=   -0.000237

     Initial potential from superposition of free atoms

     starting charge      41.9989, renormalised to      42.0000
     Starting wfcs are   28 randomized atomic wfcs
     Checking if some PAW data can be deallocated... 
       PAW data deallocated on    4 nodes for type:  1
       PAW data deallocated on    4 nodes for type:  2
       PAW data deallocated on    4 nodes for type:  3

     total cpu time spent up to now is        2.0 secs

     Self-consistent Calculation

     iteration #  1     ecut=    30.00 Ry     beta= 0.70
     Davidson diagonalization with overlap

---- Real-time Memory Report at c_bands before calling an iterative solver
            56 MiB given to the printing process from OS
             0 MiB allocation reported by mallinfo(arena+hblkhd)
          2296 MiB available memory on the node where the printing process lives
------------------
     ethr =  1.00E-02,  avg # of iterations =  2.0

     Threshold (ethr) on eigenvalues was too large:
     Diagonalizing with lowered threshold

     Davidson diagonalization with overlap

---- Real-time Memory Report at c_bands before calling an iterative solver
            59 MiB given to the printing process from OS
             0 MiB allocation reported by mallinfo(arena+hblkhd)
          2278 MiB available memory on the node where the printing process lives
------------------
     ethr =  4.31E-04,  avg # of iterations =  4.0

     total cpu time spent up to now is        4.7 secs

     total energy              =    -705.29484020 Ry
     estimated scf accuracy    <       0.13396190 Ry

     iteration #  2     ecut=    30.00 Ry     beta= 0.70
     Davidson diagonalization with overlap

---- Real-time Memory Report at c_bands before calling an iterative solver
            61 MiB given to the printing process from OS
             0 MiB allocation reported by mallinfo(arena+hblkhd)
          2250 MiB available memory on the node where the printing process lives
------------------
     ethr =  3.19E-04,  avg # of iterations =  5.1

     total cpu time spent up to now is        6.3 secs

     total energy              =    -705.23051730 Ry
     estimated scf accuracy    <       0.43036393 Ry

     iteration #  3     ecut=    30.00 Ry     beta= 0.70
     Davidson diagonalization with overlap

---- Real-time Memory Report at c_bands before calling an iterative solver
            61 MiB given to the printing process from OS
             0 MiB allocation reported by mallinfo(arena+hblkhd)
          2261 MiB available memory on the node where the printing process lives
------------------
     ethr =  3.19E-04,  avg # of iterations =  7.2

     total cpu time spent up to now is        8.4 secs

     total energy              =    -705.06653544 Ry
     estimated scf accuracy    <      10.61673235 Ry

     iteration #  4     ecut=    30.00 Ry     beta= 0.70
     Davidson diagonalization with overlap

---- Real-time Memory Report at c_bands before calling an iterative solver
            61 MiB given to the printing process from OS
             0 MiB allocation reported by mallinfo(arena+hblkhd)
          2234 MiB available memory on the node where the printing process lives
------------------
     ethr =  3.19E-04,  avg # of iterations =  6.1

     total cpu time spent up to now is       10.1 secs

     total energy              =    -705.29366892 Ry
     estimated scf accuracy    <       1.19162472 Ry

     iteration #  5     ecut=    30.00 Ry     beta= 0.70
     Davidson diagonalization with overlap

---- Real-time Memory Report at c_bands before calling an iterative solver
            61 MiB given to the printing process from OS
             0 MiB allocation reported by mallinfo(arena+hblkhd)
          2255 MiB available memory on the node where the printing process lives
------------------
     ethr =  3.19E-04,  avg # of iterations =  2.0

     total cpu time spent up to now is       11.3 secs

     total energy              =    -705.31955006 Ry
     estimated scf accuracy    <       0.01073775 Ry

     iteration #  6     ecut=    30.00 Ry     beta= 0.70
     Davidson diagonalization with overlap

---- Real-time Memory Report at c_bands before calling an iterative solver
            62 MiB given to the printing process from OS
             0 MiB allocation reported by mallinfo(arena+hblkhd)
          2258 MiB available memory on the node where the printing process lives
------------------
     ethr =  2.56E-05,  avg # of iterations =  6.2

     total cpu time spent up to now is       13.1 secs

     total energy              =    -705.32179226 Ry
     estimated scf accuracy    <       0.00146091 Ry

     iteration #  7     ecut=    30.00 Ry     beta= 0.70
     Davidson diagonalization with overlap

---- Real-time Memory Report at c_bands before calling an iterative solver
            62 MiB given to the printing process from OS
             0 MiB allocation reported by mallinfo(arena+hblkhd)
          2243 MiB available memory on the node where the printing process lives
------------------
     ethr =  3.48E-06,  avg # of iterations =  2.1

     total cpu time spent up to now is       14.4 secs

     total energy              =    -705.32191523 Ry
     estimated scf accuracy    <       0.00098387 Ry

     iteration #  8     ecut=    30.00 Ry     beta= 0.70
     Davidson diagonalization with overlap

---- Real-time Memory Report at c_bands before calling an iterative solver
            62 MiB given to the printing process from OS
             0 MiB allocation reported by mallinfo(arena+hblkhd)
          2253 MiB available memory on the node where the printing process lives
------------------
     ethr =  2.34E-06,  avg # of iterations =  3.1

     total cpu time spent up to now is       15.7 secs

     total energy              =    -705.32203547 Ry
     estimated scf accuracy    <       0.00206551 Ry

     iteration #  9     ecut=    30.00 Ry     beta= 0.70
     Davidson diagonalization with overlap

---- Real-time Memory Report at c_bands before calling an iterative solver
            62 MiB given to the printing process from OS
             0 MiB allocation reported by mallinfo(arena+hblkhd)
          2257 MiB available memory on the node where the printing process lives
------------------
     ethr =  2.34E-06,  avg # of iterations =  1.0

     total cpu time spent up to now is       16.9 secs

     total energy              =    -705.32195888 Ry
     estimated scf accuracy    <       0.00172881 Ry

     iteration # 10     ecut=    30.00 Ry     beta= 0.70
     Davidson diagonalization with overlap

---- Real-time Memory Report at c_bands before calling an iterative solver
            62 MiB given to the printing process from OS
             0 MiB allocation reported by mallinfo(arena+hblkhd)
          2266 MiB available memory on the node where the printing process lives
------------------
     ethr =  2.34E-06,  avg # of iterations =  1.0

     total cpu time spent up to now is       18.0 secs

     total energy              =    -705.32196066 Ry
     estimated scf accuracy    <       0.00056357 Ry

     iteration # 11     ecut=    30.00 Ry     beta= 0.70
     Davidson diagonalization with overlap

---- Real-time Memory Report at c_bands before calling an iterative solver
            62 MiB given to the printing process from OS
             0 MiB allocation reported by mallinfo(arena+hblkhd)
          2263 MiB available memory on the node where the printing process lives
------------------
     ethr =  1.34E-06,  avg # of iterations =  1.0

     total cpu time spent up to now is       19.3 secs

     total energy              =    -705.32192487 Ry
     estimated scf accuracy    <       0.00036565 Ry

     iteration # 12     ecut=    30.00 Ry     beta= 0.70
     Davidson diagonalization with overlap

---- Real-time Memory Report at c_bands before calling an iterative solver
            62 MiB given to the printing process from OS
             0 MiB allocation reported by mallinfo(arena+hblkhd)
          2248 MiB available memory on the node where the printing process lives
------------------
     ethr =  8.71E-07,  avg # of iterations =  1.5

     total cpu time spent up to now is       20.4 secs

     total energy              =    -705.32194252 Ry
     estimated scf accuracy    <       0.00000501 Ry

     iteration # 13     ecut=    30.00 Ry     beta= 0.70
     Davidson diagonalization with overlap

---- Real-time Memory Report at c_bands before calling an iterative solver
            62 MiB given to the printing process from OS
             0 MiB allocation reported by mallinfo(arena+hblkhd)
          2249 MiB available memory on the node where the printing process lives
------------------
     ethr =  1.19E-08,  avg # of iterations =  6.7

     total cpu time spent up to now is       22.5 secs

     total energy              =    -705.32194704 Ry
     estimated scf accuracy    <       0.00000335 Ry

     iteration # 14     ecut=    30.00 Ry     beta= 0.70
     Davidson diagonalization with overlap

---- Real-time Memory Report at c_bands before calling an iterative solver
            62 MiB given to the printing process from OS
             0 MiB allocation reported by mallinfo(arena+hblkhd)
          2254 MiB available memory on the node where the printing process lives
------------------
     ethr =  7.97E-09,  avg # of iterations =  1.7

     total cpu time spent up to now is       23.7 secs

     total energy              =    -705.32194731 Ry
     estimated scf accuracy    <       0.00000056 Ry

     iteration # 15     ecut=    30.00 Ry     beta= 0.70
     Davidson diagonalization with overlap

---- Real-time Memory Report at c_bands before calling an iterative solver
            62 MiB given to the printing process from OS
             0 MiB allocation reported by mallinfo(arena+hblkhd)
          2254 MiB available memory on the node where the printing process lives
------------------
     ethr =  1.32E-09,  avg # of iterations =  3.4

     total cpu time spent up to now is       25.0 secs

     total energy              =    -705.32194738 Ry
     estimated scf accuracy    <       0.00000002 Ry

     iteration # 16     ecut=    30.00 Ry     beta= 0.70
     Davidson diagonalization with overlap

---- Real-time Memory Report at c_bands before calling an iterative solver
            62 MiB given to the printing process from OS
             0 MiB allocation reported by mallinfo(arena+hblkhd)
          2256 MiB available memory on the node where the printing process lives
------------------
     ethr =  5.25E-11,  avg # of iterations =  6.1

     total cpu time spent up to now is       26.8 secs

     total energy              =    -705.32194739 Ry
     estimated scf accuracy    <       0.00000028 Ry

     iteration # 17     ecut=    30.00 Ry     beta= 0.70
     Davidson diagonalization with overlap

---- Real-time Memory Report at c_bands before calling an iterative solver
            62 MiB given to the printing process from OS
             0 MiB allocation reported by mallinfo(arena+hblkhd)
          2261 MiB available memory on the node where the printing process lives
------------------
     ethr =  5.25E-11,  avg # of iterations =  2.6

     total cpu time spent up to now is       28.1 secs

     total energy              =    -705.32194739 Ry
     estimated scf accuracy    <       0.00000002 Ry

     iteration # 18     ecut=    30.00 Ry     beta= 0.70
     Davidson diagonalization with overlap

---- Real-time Memory Report at c_bands before calling an iterative solver
            62 MiB given to the printing process from OS
             0 MiB allocation reported by mallinfo(arena+hblkhd)
          2266 MiB available memory on the node where the printing process lives
------------------
     ethr =  5.22E-11,  avg # of iterations =  1.1

     total cpu time spent up to now is       29.2 secs

     total energy              =    -705.32194739 Ry
     estimated scf accuracy    <          2.8E-09 Ry

     iteration # 19     ecut=    30.00 Ry     beta= 0.70
     Davidson diagonalization with overlap

---- Real-time Memory Report at c_bands before calling an iterative solver
            62 MiB given to the printing process from OS
             0 MiB allocation reported by mallinfo(arena+hblkhd)
          2279 MiB available memory on the node where the printing process lives
------------------
     ethr =  6.62E-12,  avg # of iterations =  4.3

     total cpu time spent up to now is       30.6 secs

     total energy              =    -705.32194739 Ry
     estimated scf accuracy    <          4.2E-10 Ry

     iteration # 20     ecut=    30.00 Ry     beta= 0.70
     Davidson diagonalization with overlap

---- Real-time Memory Report at c_bands before calling an iterative solver
            62 MiB given to the printing process from OS
             0 MiB allocation reported by mallinfo(arena+hblkhd)
          2281 MiB available memory on the node where the printing process lives
------------------
     ethr =  1.01E-12,  avg # of iterations =  4.2

     total cpu time spent up to now is       32.0 secs

     total energy              =    -705.32194739 Ry
     estimated scf accuracy    <          1.6E-10 Ry

     iteration # 21     ecut=    30.00 Ry     beta= 0.70
     Davidson diagonalization with overlap

---- Real-time Memory Report at c_bands before calling an iterative solver
            62 MiB given to the printing process from OS
             0 MiB allocation reported by mallinfo(arena+hblkhd)
          2280 MiB available memory on the node where the printing process lives
------------------
     ethr =  3.73E-13,  avg # of iterations =  1.4

     total cpu time spent up to now is       33.2 secs

     End of self-consistent calculation

          k = 0.0000 0.0000 0.0000 (  1617 PWs)   bands (ev):

   -72.2420 -72.2415 -40.9859 -40.9829 -40.9824 -40.9820 -40.9812 -40.9799
    -6.5672  -5.9149   1.9869   3.4805   3.5203   3.5259   3.6896   3.6908
     6.6761   6.6781   6.8483   6.8521   6.9068   8.2523   8.2552   9.2517
     9.2601

     occupation numbers 
     1.0000   1.0000   1.0000   1.0000   1.0000   1.0000   1.0000   1.0000
     1.0000   1.0000   1.0000   1.0000   1.0000   1.0000   1.0000   1.0000
     1.0000   1.0000   0.9998   0.9997   0.9980   0.0000   0.0000   0.0000
     0.0000

          k = 0.0000 0.0000 0.4899 (  1600 PWs)   bands (ev):

   -72.2417 -72.2415 -40.9852 -40.9839 -40.9828 -40.9822 -40.9819 -40.9799
    -6.3590  -5.8486   2.2518   2.9388   3.3529   3.5567   3.5850   3.7065
     6.5113   6.6874   6.6881   6.8688   6.9566   7.9438   7.9495   8.1637
     9.0041

     occupation numbers 
     1.0000   1.0000   1.0000   1.0000   1.0000   1.0000   1.0000   1.0000
     1.0000   1.0000   1.0000   1.0000   1.0000   1.0000   1.0000   1.0000
     1.0000   1.0000   1.0000   0.9995   0.9910   0.0000   0.0000   0.0000
     0.0000

          k = 0.0000 0.0000 0.9798 (  1578 PWs)   bands (ev):

   -72.2415 -72.2412 -40.9860 -40.9842 -40.9833 -40.9831 -40.9823 -40.9805
    -5.9877  -5.7300   2.0975   2.1340   3.6094   3.6342   3.6473   3.7521
     6.2797   6.7853   6.7964   6.9597   7.0683   7.1434   7.5125   7.5703
     8.4236

     occupation numbers 
     1.0000   1.0000   1.0000   1.0000   1.0000   1.0000   1.0000   1.0000
     1.0000   1.0000   1.0000   1.0000   1.0000   1.0000   1.0000   1.0000
     1.0000   1.0000   1.0000   0.9902   0.8857   0.6640   0.0003   0.0000
     0.0000

          k = 0.0000 0.4619-0.1633 (  1600 PWs)   bands (ev):

   -72.2417 -72.2415 -40.9857 -40.9832 -40.9830 -40.9827 -40.9814 -40.9800
    -6.3588  -5.8486   2.2528   2.9343   3.3499   3.5598   3.5899   3.7086
     6.5106   6.6851   6.6890   6.8710   6.9562   7.9435   7.9484   8.1640
     8.9970

     occupation numbers 
     1.0000   1.0000   1.0000   1.0000   1.0000   1.0000   1.0000   1.0000
     1.0000   1.0000   1.0000   1.0000   1.0000   1.0000   1.0000   1.0000
     1.0000   1.0000   1.0000   0.9994   0.9911   0.0000   0.0000   0.0000
     0.0000

          k = 0.0000 0.4619 0.3266 (  1598 PWs)   bands (ev):

   -72.2417 -72.2415 -40.9849 -40.9838 -40.9833 -40.9826 -40.9812 -40.9802
    -6.2902  -5.9286   2.4068   2.8557   3.2561   3.5595   3.5905   3.7186
     6.4631   6.5957   6.7698   6.8232   7.1903   7.7274   8.4685   8.5180
     8.5201

     occupation numbers 
     1.0000   1.0000   1.0000   1.0000   1.0000   1.0000   1.0000   1.0000
     1.0000   1.0000   1.0000   1.0000   1.0000   1.0000   1.0000   1.0000
     1.0000   1.0000   1.0000   0.9999   0.4747   0.0000   0.0000   0.0000
     0.0000

          k = 0.0000 0.4619 0.8165 (  1588 PWs)   bands (ev):

   -72.2415 -72.2414 -40.9855 -40.9841 -40.9837 -40.9829 -40.9821 -40.9807
    -5.9696  -5.8557   2.3447   2.3663   3.3460   3.4913   3.6333   3.6877
     6.4374   6.4510   6.8523   6.9422   7.1386   7.2953   7.6660   8.0182
     8.1210

     occupation numbers 
     1.0000   1.0000   1.0000   1.0000   1.0000   1.0000   1.0000   1.0000
     1.0000   1.0000   1.0000   1.0000   1.0000   1.0000   1.0000   1.0000
     1.0000   1.0000   0.9997   0.9940   0.6821   0.1241   0.0000   0.0000
     0.0000

          k = 0.0000 0.4619-1.1431 (  1573 PWs)   bands (ev):

   -72.2413 -72.2413 -40.9859 -40.9844 -40.9838 -40.9831 -40.9826 -40.9808
    -5.8355  -5.7280   2.3059   2.3264   3.2166   3.2573   3.6955   3.6991
     6.2977   6.6143   6.7565   6.7709   7.0409   7.0938   7.4714   7.7878
     7.8534

     occupation numbers 
     1.0000   1.0000   1.0000   1.0000   1.0000   1.0000   1.0000   1.0000
     1.0000   1.0000   1.0000   1.0000   1.0000   1.0000   1.0000   1.0000
     1.0000   1.0000   1.0000   1.0000   0.9317   0.8263   0.0014   0.0000
     0.0000

          k = 0.0000 0.4619-0.6532 (  1585 PWs)   bands (ev):

   -72.2416 -72.2413 -40.9853 -40.9845 -40.9834 -40.9831 -40.9822 -40.9805
    -6.0928  -5.7253   2.5751   2.6572   2.8562   3.3662   3.6559   3.6872
     6.2938   6.5656   6.6536   6.8675   7.0602   7.4474   7.5992   7.9331
     7.9735

     occupation numbers 
     1.0000   1.0000   1.0000   1.0000   1.0000   1.0000   1.0000   1.0000
     1.0000   1.0000   1.0000   1.0000   1.0000   1.0000   1.0000   1.0000
     1.0000   1.0000   1.0000   0.9995   0.9012   0.0031   0.0000   0.0000
     0.0000

          k = 0.0000 0.9238-0.3266 (  1578 PWs)   bands (ev):

   -72.2415 -72.2412 -40.9860 -40.9849 -40.9835 -40.9832 -40.9811 -40.9806
    -5.9872  -5.7301   2.0985   2.1313   3.6044   3.6395   3.6530   3.7562
     6.2806   6.7830   6.7974   6.9587   7.0695   7.1388   7.5093   7.5718
     8.4156

     occupation numbers 
     1.0000   1.0000   1.0000   1.0000   1.0000   1.0000   1.0000   1.0000
     1.0000   1.0000   1.0000   1.0000   1.0000   1.0000   1.0000   1.0000
     1.0000   1.0000   1.0000   0.9904   0.8834   0.6813   0.0004   0.0000
     0.0000

          k = 0.0000 0.9238 0.1633 (  1588 PWs)   bands (ev):

   -72.2415 -72.2414 -40.9851 -40.9848 -40.9838 -40.9836 -40.9809 -40.9808
    -5.9693  -5.8557   2.3448   2.3641   3.3480   3.4965   3.6361   3.6854
     6.4376   6.4496   6.8525   6.9414   7.1385   7.2902   7.6670   8.0132
     8.1203

     occupation numbers 
     1.0000   1.0000   1.0000   1.0000   1.0000   1.0000   1.0000   1.0000
     1.0000   1.0000   1.0000   1.0000   1.0000   1.0000   1.0000   1.0000
     1.0000   1.0000   0.9997   0.9942   0.6824   0.1352   0.0000   0.0000
     0.0000

          k = 0.0000 0.9238 0.6532 (  1582 PWs)   bands (ev):

   -72.2414 -72.2413 -40.9858 -40.9850 -40.9835 -40.9834 -40.9810 -40.9808
    -5.9226  -5.7988   2.1074   2.1302   3.5223   3.6796   3.7000   3.7333
     6.2350   6.7663   6.8167   7.0405   7.0450   7.3249   7.5560   7.5803
     8.0877

     occupation numbers 
     1.0000   1.0000   1.0000   1.0000   1.0000   1.0000   1.0000   1.0000
     1.0000   1.0000   1.0000   1.0000   1.0000   1.0000   1.0000   1.0000
     1.0000   1.0000   0.9999   0.9324   0.9260   0.0717   0.0001   0.0000
     0.0000

          k = 0.0000 0.9238-1.3064 (  1588 PWs)   bands (ev):

   -72.2414 -72.2414 -40.9859 -40.9851 -40.9840 -40.9837 -40.9813 -40.9812
    -5.8472  -5.7145   2.2148   2.2585   3.3065   3.3365   3.6833   3.7254
     6.2506   6.6369   6.7915   6.8869   6.9142   7.0004   7.5664   7.6561
     7.8925

     occupation numbers 
     1.0000   1.0000   1.0000   1.0000   1.0000   1.0000   1.0000   1.0000
     1.0000   1.0000   1.0000   1.0000   1.0000   1.0000   1.0000   1.0000
     1.0000   1.0000   1.0000   0.9990   0.9975   0.9719   0.0000   0.0000
     0.0000

          k = 0.0000 0.9238-0.8165 (  1573 PWs)   bands (ev):

   -72.2413 -72.2413 -40.9856 -40.9849 -40.9840 -40.9839 -40.9814 -40.9809
    -5.8352  -5.7280   2.3033   2.3264   3.2216   3.2593   3.6933   3.7020
     6.2976   6.6116   6.7566   6.7697   7.0415   7.0930   7.4706   7.7859
     7.8540

     occupation numbers 
     1.0000   1.0000   1.0000   1.0000   1.0000   1.0000   1.0000   1.0000
     1.0000   1.0000   1.0000   1.0000   1.0000   1.0000   1.0000   1.0000
     1.0000   1.0000   1.0000   1.0000   0.9309   0.8283   0.0015   0.0000
     0.0000

          k = 0.3333-0.1925-0.1361 (  1605 PWs)   bands (ev):

   -72.2417 -72.2416 -40.9850 -40.9833 -40.9823 -40.9818 -40.9810 -40.9801
    -6.4169  -6.0929   2.3254   3.0585   3.5795   3.5840   3.6528   3.6552
     6.6871   6.6892   6.7116   6.7145   7.3723   8.3855   8.5454   8.5463
     9.0655

     occupation numbers 
     1.0000   1.0000   1.0000   1.0000   1.0000   1.0000   1.0000   1.0000
     1.0000   1.0000   1.0000   1.0000   1.0000   1.0000   1.0000   1.0000
     1.0000   1.0000   1.0000   1.0000   0.0253   0.0000   0.0000   0.0000
     0.0000

          k = 0.3333-0.1925 0.3538 (  1594 PWs)   bands (ev):

   -72.2417 -72.2414 -40.9856 -40.9833 -40.9824 -40.9823 -40.9816 -40.9807
    -6.3273  -5.8862   2.3640   2.9321   3.2347   3.5453   3.5753   3.7271
     6.5029   6.6512   6.7019   6.8018   7.1585   7.7123   8.3769   8.4853
     8.6186

     occupation numbers 
     1.0000   1.0000   1.0000   1.0000   1.0000   1.0000   1.0000   1.0000
     1.0000   1.0000   1.0000   1.0000   1.0000   1.0000   1.0000   1.0000
     1.0000   1.0000   1.0000   1.0000   0.6050   0.0000   0.0000   0.0000
     0.0000

          k = 0.3333-0.1925 0.8437 (  1583 PWs)   bands (ev):

   -72.2415 -72.2413 -40.9853 -40.9850 -40.9830 -40.9826 -40.9826 -40.9813
    -5.9875  -5.7356   2.3563   2.4305   3.0545   3.4753   3.6442   3.7452
     6.3031   6.5208   6.8314   6.9287   6.9894   7.2864   7.6082   7.8205
     8.1138

     occupation numbers 
     1.0000   1.0000   1.0000   1.0000   1.0000   1.0000   1.0000   1.0000
     1.0000   1.0000   1.0000   1.0000   1.0000   1.0000   1.0000   1.0000
     1.0000   1.0000   0.9999   0.9960   0.9785   0.1440   0.0000   0.0000
     0.0000

          k = 0.3333-0.1925-1.1159 (  1581 PWs)   bands (ev):

   -72.2414 -72.2414 -40.9860 -40.9842 -40.9830 -40.9826 -40.9825 -40.9813
    -5.8654  -5.8599   2.2044   2.2320   3.3224   3.6366   3.6974   3.7018
     6.2655   6.6860   6.7631   7.0441   7.0556   7.3994   7.6687   7.7759
     7.8543

     occupation numbers 
     1.0000   1.0000   1.0000   1.0000   1.0000   1.0000   1.0000   1.0000
     1.0000   1.0000   1.0000   1.0000   1.0000   1.0000   1.0000   1.0000
     1.0000   1.0000   1.0000   0.9273   0.9093   0.0126   0.0000   0.0000
     0.0000

          k = 0.3333-0.1925-0.6260 (  1602 PWs)   bands (ev):

   -72.2416 -72.2416 -40.9850 -40.9837 -40.9826 -40.9821 -40.9820 -40.9807
    -6.1491  -6.0796   2.4954   2.6178   3.4321   3.5656   3.6380   3.6640
     6.3985   6.5659   6.8222   6.8967   7.6593   7.7113   8.0421   8.1100
     8.3836

     occupation numbers 
     1.0000   1.0000   1.0000   1.0000   1.0000   1.0000   1.0000   1.0000
     1.0000   1.0000   1.0000   1.0000   1.0000   1.0000   1.0000   1.0000
     1.0000   1.0000   0.9999   0.9986   0.0000   0.0000   0.0000   0.0000
     0.0000

          k = 0.3333 0.2694-0.2994 (  1594 PWs)   bands (ev):

   -72.2417 -72.2414 -40.9851 -40.9835 -40.9832 -40.9826 -40.9813 -40.9801
    -6.3273  -5.8861   2.3635   2.9324   3.2356   3.5412   3.5796   3.7296
     6.5016   6.6528   6.6990   6.8032   7.1544   7.7115   8.3767   8.4879
     8.6136

     occupation numbers 
     1.0000   1.0000   1.0000   1.0000   1.0000   1.0000   1.0000   1.0000
     1.0000   1.0000   1.0000   1.0000   1.0000   1.0000   1.0000   1.0000
     1.0000   1.0000   1.0000   1.0000   0.6213   0.0000   0.0000   0.0000
     0.0000

          k = 0.3333 0.2694 0.1905 (  1598 PWs)   bands (ev):

   -72.2417 -72.2415 -40.9857 -40.9831 -40.9830 -40.9827 -40.9814 -40.9800
    -6.3745  -5.8301   2.2520   2.9812   3.3076   3.5487   3.5799   3.7221
     6.5141   6.6488   6.7195   6.8464   6.9440   7.8814   8.0123   8.2346
     8.9499

     occupation numbers 
     1.0000   1.0000   1.0000   1.0000   1.0000   1.0000   1.0000   1.0000
     1.0000   1.0000   1.0000   1.0000   1.0000   1.0000   1.0000   1.0000
     1.0000   1.0000   1.0000   0.9998   0.9937   0.0000   0.0000   0.0000
     0.0000

          k = 0.3333 0.2694 0.6804 (  1583 PWs)   bands (ev):

   -72.2416 -72.2412 -40.9850 -40.9847 -40.9834 -40.9831 -40.9822 -40.9805
    -6.0892  -5.7294   2.5626   2.6188   2.9045   3.3738   3.6533   3.6897
     6.3235   6.5469   6.6652   6.8473   7.0809   7.4688   7.5782   7.9335
     7.9996

     occupation numbers 
     1.0000   1.0000   1.0000   1.0000   1.0000   1.0000   1.0000   1.0000
     1.0000   1.0000   1.0000   1.0000   1.0000   1.0000   1.0000   1.0000
     1.0000   1.0000   1.0000   0.9998   0.8584   0.0015   0.0000   0.0000
     0.0000

          k = 0.3333 0.2694-1.2792 (  1576 PWs)   bands (ev):

   -72.2414 -72.2413 -40.9860 -40.9843 -40.9838 -40.9831 -40.9827 -40.9808
    -5.8422  -5.7204   2.2575   2.2919   3.2777   3.2864   3.6866   3.7137
     6.2820   6.6266   6.7809   6.8176   7.0106   7.0433   7.5080   7.7890
     7.8435

     occupation numbers 
     1.0000   1.0000   1.0000   1.0000   1.0000   1.0000   1.0000   1.0000
     1.0000   1.0000   1.0000   1.0000   1.0000   1.0000   1.0000   1.0000
     1.0000   1.0000   1.0000   0.9999   0.9643   0.9283   0.0004   0.0000
     0.0000

          k = 0.3333 0.2694-0.7893 (  1589 PWs)   bands (ev):

   -72.2416 -72.2414 -40.9854 -40.9842 -40.9837 -40.9830 -40.9822 -40.9806
    -6.0042  -5.8199   2.3723   2.3996   3.2693   3.4944   3.6258   3.6950
     6.4420   6.4604   6.7682   6.9200   7.1390   7.3611   7.5658   8.0462
     8.1011

     occupation numbers 
     1.0000   1.0000   1.0000   1.0000   1.0000   1.0000   1.0000   1.0000
     1.0000   1.0000   1.0000   1.0000   1.0000   1.0000   1.0000   1.0000
     1.0000   1.0000   1.0000   0.9970   0.6807   0.0329   0.0000   0.0000
     0.0000

          k = 0.3333 0.7313-0.4627 (  1583 PWs)   bands (ev):

   -72.2415 -72.2413 -40.9855 -40.9848 -40.9839 -40.9834 -40.9814 -40.9807
    -5.9872  -5.7354   2.3547   2.4318   3.0526   3.4769   3.6497   3.7496
     6.3011   6.5184   6.8321   6.9301   6.9853   7.2832   7.6087   7.8172
     8.1070

     occupation numbers 
     1.0000   1.0000   1.0000   1.0000   1.0000   1.0000   1.0000   1.0000
     1.0000   1.0000   1.0000   1.0000   1.0000   1.0000   1.0000   1.0000
     1.0000   1.0000   0.9999   0.9959   0.9806   0.1515   0.0000   0.0000
     0.0000

          k = 0.3333 0.7313 0.0272 (  1583 PWs)   bands (ev):

   -72.2416 -72.2412 -40.9854 -40.9843 -40.9840 -40.9831 -40.9812 -40.9808
    -6.0889  -5.7294   2.5603   2.6203   2.9035   3.3763   3.6582   3.6899
     6.3236   6.5456   6.6632   6.8466   7.0826   7.4691   7.5724   7.9315
     7.9980

     occupation numbers 
     1.0000   1.0000   1.0000   1.0000   1.0000   1.0000   1.0000   1.0000
     1.0000   1.0000   1.0000   1.0000   1.0000   1.0000   1.0000   1.0000
     1.0000   1.0000   1.0000   0.9998   0.8543   0.0015   0.0000   0.0000
     0.0000

          k = 0.3333 0.7313 0.5171 (  1587 PWs)   bands (ev):

   -72.2415 -72.2413 -40.9851 -40.9851 -40.9841 -40.9834 -40.9813 -40.9808
    -5.9471  -5.7786   2.3548   2.4550   3.0151   3.4825   3.6651   3.7366
     6.3904   6.4014   6.7909   6.9592   7.0576   7.3253   7.6494   7.9045
     8.0197

     occupation numbers 
     1.0000   1.0000   1.0000   1.0000   1.0000   1.0000   1.0000   1.0000
     1.0000   1.0000   1.0000   1.0000   1.0000   1.0000   1.0000   1.0000
     1.0000   1.0000   1.0000   0.9903   0.9058   0.0712   0.0000   0.0000
     0.0000

          k = 0.3333 0.7313-1.4425 (  1573 PWs)   bands (ev):

   -72.2414 -72.2413 -40.9857 -40.9849 -40.9839 -40.9835 -40.9817 -40.9810
    -5.8158  -5.7496   2.4283   2.4320   3.0738   3.1479   3.6760   3.7082
     6.3753   6.5437   6.6832   6.7086   7.1066   7.1380   7.4639   7.6439
     7.9851

     occupation numbers 
     1.0000   1.0000   1.0000   1.0000   1.0000   1.0000   1.0000   1.0000
     1.0000   1.0000   1.0000   1.0000   1.0000   1.0000   1.0000   1.0000
     1.0000   1.0000   1.0000   1.0000   0.7899   0.6844   0.0018   0.0000
     0.0000

          k = 0.3333 0.7313-0.9526 (  1579 PWs)   bands (ev):

   -72.2414 -72.2413 -40.9855 -40.9850 -40.9841 -40.9836 -40.9818 -40.9810
    -5.7903  -5.7766   2.5214   2.5285   2.9900   3.0151   3.6861   3.6969
     6.4433   6.4748   6.6571   6.6616   7.1314   7.1430   7.4871   7.5300
     8.0846

     occupation numbers 
     1.0000   1.0000   1.0000   1.0000   1.0000   1.0000   1.0000   1.0000
     1.0000   1.0000   1.0000   1.0000   1.0000   1.0000   1.0000   1.0000
     1.0000   1.0000   1.0000   1.0000   0.7083   0.6655   0.0008   0.0002
     0.0000

          k = 0.3333-1.1162 0.1905 (  1581 PWs)   bands (ev):

   -72.2414 -72.2414 -40.9855 -40.9850 -40.9838 -40.9834 -40.9810 -40.9809
    -5.8650  -5.8599   2.2051   2.2296   3.3273   3.6324   3.7026   3.7065
     6.2649   6.6813   6.7639   7.0456   7.0521   7.3977   7.6638   7.7791
     7.8499

     occupation numbers 
     1.0000   1.0000   1.0000   1.0000   1.0000   1.0000   1.0000   1.0000
     1.0000   1.0000   1.0000   1.0000   1.0000   1.0000   1.0000   1.0000
     1.0000   1.0000   1.0000   0.9251   0.9150   0.0132   0.0000   0.0000
     0.0000

          k = 0.3333-1.1162 0.6804 (  1576 PWs)   bands (ev):

   -72.2414 -72.2413 -40.9858 -40.9850 -40.9839 -40.9835 -40.9815 -40.9811
    -5.8418  -5.7206   2.2552   2.2922   3.2815   3.2884   3.6923   3.7091
     6.2837   6.6220   6.7800   6.8181   7.0131   7.0415   7.5077   7.7896
     7.8398

     occupation numbers 
     1.0000   1.0000   1.0000   1.0000   1.0000   1.0000   1.0000   1.0000
     1.0000   1.0000   1.0000   1.0000   1.0000   1.0000   1.0000   1.0000
     1.0000   1.0000   1.0000   0.9999   0.9623   0.9309   0.0004   0.0000
     0.0000

          k = 0.3333-1.1162 1.1703 (  1573 PWs)   bands (ev):

   -72.2414 -72.2413 -40.9853 -40.9850 -40.9842 -40.9837 -40.9816 -40.9808
    -5.8160  -5.7495   2.4276   2.4316   3.0748   3.1489   3.6785   3.7048
     6.3726   6.5466   6.6826   6.7090   7.1049   7.1393   7.4635   7.6449
     7.9852

     occupation numbers 
     1.0000   1.0000   1.0000   1.0000   1.0000   1.0000   1.0000   1.0000
     1.0000   1.0000   1.0000   1.0000   1.0000   1.0000   1.0000   1.0000
     1.0000   1.0000   1.0000   1.0000   0.7948   0.6793   0.0018   0.0000
     0.0000

          k = 0.3333-1.1162-0.7893 (  1577 PWs)   bands (ev):

   -72.2415 -72.2413 -40.9859 -40.9848 -40.9837 -40.9832 -40.9813 -40.9805
    -6.0050  -5.7126   2.1918   2.2155   3.4091   3.5993   3.6486   3.7601
     6.2638   6.6941   6.8554   6.8968   6.9614   7.2097   7.5871   7.5911
     8.3679

     occupation numbers 
     1.0000   1.0000   1.0000   1.0000   1.0000   1.0000   1.0000   1.0000
     1.0000   1.0000   1.0000   1.0000   1.0000   1.0000   1.0000   1.0000
     1.0000   1.0000   0.9997   0.9986   0.9897   0.3953   0.0000   0.0000
     0.0000

          k = 0.3333-1.1162-0.2994 (  1580 PWs)   bands (ev):

   -72.2415 -72.2413 -40.9853 -40.9845 -40.9839 -40.9832 -40.9810 -40.9808
    -6.0338  -5.7881   2.4178   2.4419   3.1828   3.4799   3.6394   3.6950
     6.4320   6.4996   6.6988   6.9087   7.1398   7.4381   7.5093   8.0437
     8.0678

     occupation numbers 
     1.0000   1.0000   1.0000   1.0000   1.0000   1.0000   1.0000   1.0000
     1.0000   1.0000   1.0000   1.0000   1.0000   1.0000   1.0000   1.0000
     1.0000   1.0000   1.0000   0.9979   0.6775   0.0041   0.0004   0.0000
     0.0000

          k = 0.3333-0.6543 0.0272 (  1602 PWs)   bands (ev):

   -72.2416 -72.2416 -40.9850 -40.9838 -40.9832 -40.9828 -40.9807 -40.9807
    -6.1488  -6.0797   2.4968   2.6145   3.4362   3.5598   3.6411   3.6680
     6.3977   6.5666   6.8195   6.8988   7.6622   7.7061   8.0406   8.1076
     8.3846

     occupation numbers 
     1.0000   1.0000   1.0000   1.0000   1.0000   1.0000   1.0000   1.0000
     1.0000   1.0000   1.0000   1.0000   1.0000   1.0000   1.0000   1.0000
     1.0000   1.0000   0.9999   0.9985   0.0000   0.0000   0.0000   0.0000
     0.0000

          k = 0.3333-0.6543 0.5171 (  1589 PWs)   bands (ev):

   -72.2416 -72.2414 -40.9858 -40.9840 -40.9835 -40.9830 -40.9815 -40.9813
    -6.0040  -5.8202   2.3740   2.3975   3.2668   3.4955   3.6311   3.6915
     6.4437   6.4598   6.7715   6.9187   7.1411   7.3592   7.5665   8.0417
     8.1023

     occupation numbers 
     1.0000   1.0000   1.0000   1.0000   1.0000   1.0000   1.0000   1.0000
     1.0000   1.0000   1.0000   1.0000   1.0000   1.0000   1.0000   1.0000
     1.0000   1.0000   1.0000   0.9971   0.6726   0.0344   0.0000   0.0000
     0.0000

          k = 0.3333-0.6543 1.0070 (  1579 PWs)   bands (ev):

   -72.2414 -72.2413 -40.9853 -40.9850 -40.9836 -40.9835 -40.9818 -40.9816
    -5.7905  -5.7766   2.5213   2.5297   2.9880   3.0145   3.6859   3.6929
     6.4430   6.4784   6.6589   6.6642   7.1303   7.1438   7.4869   7.5305
     8.0863

     occupation numbers 
     1.0000   1.0000   1.0000   1.0000   1.0000   1.0000   1.0000   1.0000
     1.0000   1.0000   1.0000   1.0000   1.0000   1.0000   1.0000   1.0000
     1.0000   1.0000   1.0000   1.0000   0.7123   0.6626   0.0008   0.0002
     0.0000

          k = 0.3333-0.6543-0.9526 (  1580 PWs)   bands (ev):

   -72.2415 -72.2413 -40.9857 -40.9839 -40.9834 -40.9831 -40.9814 -40.9811
    -6.0339  -5.7883   2.4189   2.4423   3.1797   3.4779   3.6388   3.6935
     6.4336   6.5006   6.7020   6.9084   7.1406   7.4419   7.5088   8.0444
     8.0698

     occupation numbers 
     1.0000   1.0000   1.0000   1.0000   1.0000   1.0000   1.0000   1.0000
     1.0000   1.0000   1.0000   1.0000   1.0000   1.0000   1.0000   1.0000
     1.0000   1.0000   1.0000   0.9979   0.6745   0.0037   0.0004   0.0000
     0.0000

          k = 0.3333-0.6543-0.4627 (  1599 PWs)   bands (ev):

   -72.2416 -72.2416 -40.9852 -40.9835 -40.9831 -40.9829 -40.9808 -40.9806
    -6.2037  -6.0223   2.4192   2.6784   3.4795   3.5304   3.6511   3.6575
     6.4064   6.5916   6.8232   6.9222   7.4533   7.8414   8.0355   8.2211
     8.2917

     occupation numbers 
     1.0000   1.0000   1.0000   1.0000   1.0000   1.0000   1.0000   1.0000
     1.0000   1.0000   1.0000   1.0000   1.0000   1.0000   1.0000   1.0000
     1.0000   1.0000   0.9999   0.9968   0.0026   0.0000   0.0000   0.0000
     0.0000

     the Fermi energy is     7.1841 ev

!    total energy              =    -705.32194739 Ry
     total all-electron energy =     -6231.038755 Ry
     estimated scf accuracy    <          4.7E-12 Ry
     smearing contrib. (-TS)   =      -0.00466794 Ry
     internal energy E=F+TS    =    -705.31727946 Ry

     The total energy is F=E-TS. E is the sum of the following terms:
     one-electron contribution =    -305.12161703 Ry
     hartree contribution      =     169.04358347 Ry
     xc contribution           =     -65.34738669 Ry
     ewald contribution        =    -256.50809569 Ry
     one-center paw contrib.   =    -247.38376352 Ry
      -> PAW hartree energy AE =     177.15968734 Ry
      -> PAW hartree energy PS =    -178.07055132 Ry
      -> PAW xc energy AE      =    -104.23524402 Ry
      -> PAW xc energy PS      =      27.56994854 Ry
      -> total E_H with PAW    =     168.13271949 Ry
      -> total E_XC with PAW   =    -142.01268217 Ry

     convergence has been achieved in  21 iterations

     Forces acting on atoms (cartesian axes, Ry/au):

     atom    1 type  1   force =     0.00002719   -0.00001570    0.00003041
     atom    2 type  2   force =     0.00003015   -0.00001741    0.00002913
     atom    3 type  3   force =    -0.00002875    0.00001660   -0.00002971
     atom    4 type  3   force =    -0.00002859    0.00001650   -0.00002983
     The non-local contrib.  to forces
     atom    1 type  1   force =    -0.00007305    0.00004218    0.00023096
     atom    2 type  2   force =    -0.00007064    0.00004079    0.00023003
     atom    3 type  3   force =    -0.00364854    0.00210649    0.00225254
     atom    4 type  3   force =    -0.00364864    0.00210654    0.00225253
     The ionic contribution  to forces
     atom    1 type  1   force =     0.06463554   -0.03731828   -0.03919476
     atom    2 type  2   force =     0.06455067   -0.03726946   -0.03916215
     atom    3 type  3   force =    -0.06461229    0.03730528    0.03918770
     atom    4 type  3   force =    -0.06457393    0.03728246    0.03916921
     The local contribution  to forces
     atom    1 type  1   force =    -0.06451839    0.03729634    0.03901108
     atom    2 type  2   force =    -0.06445887    0.03721713    0.03898073
     atom    3 type  3   force =     0.06805840   -0.03929528   -0.04136602
     atom    4 type  3   force =     0.06801997   -0.03927259   -0.04134755
     The core correction contribution to forces
     atom    1 type  1   force =     0.00001059   -0.00000566   -0.00002315
     atom    2 type  2   force =     0.00001010   -0.00000583   -0.00002308
     atom    3 type  3   force =     0.00017782   -0.00010265   -0.00010894
     atom    4 type  3   force =     0.00017781   -0.00010266   -0.00010894
     The Hubbard contrib.    to forces
     atom    1 type  1   force =     0.00000000    0.00000000    0.00000000
     atom    2 type  2   force =     0.00000000    0.00000000    0.00000000
     atom    3 type  3   force =     0.00000000    0.00000000    0.00000000
     atom    4 type  3   force =     0.00000000    0.00000000    0.00000000
     The SCF correction term to forces
     atom    1 type  1   force =    -0.00000343    0.00000198    0.00000134
     atom    2 type  2   force =     0.00000327   -0.00000189   -0.00000134
     atom    3 type  3   force =    -0.00000021    0.00000012    0.00000008
     atom    4 type  3   force =     0.00000005   -0.00000003   -0.00000001

     Total force =     0.000089     Total SCF correction =     0.000006


     Computing stress (Cartesian axis) and pressure

          total   stress  (Ry/bohr**3)                   (kbar)     P=     -579.34
  -0.00393936   0.00000111   0.00000803         -579.50        0.16        1.18
   0.00000111  -0.00393808  -0.00000464            0.16     -579.31       -0.68
   0.00000803  -0.00000464  -0.00393729            1.18       -0.68     -579.19

     kinetic stress (kbar)  15401.26     -4.88      1.31
                               -4.88  15395.63     -0.76
                                1.31     -0.76  15392.49

     local   stress (kbar)  -2770.64    252.67    174.31
                              252.67  -2478.88   -100.64
                              174.31   -100.64  -2293.86

     nonloc. stress (kbar)   -968.24      4.51      1.13
                                4.51   -963.03     -0.65
                                1.13     -0.65   -960.18

     hartree stress (kbar)  14590.91    -86.13    -58.72
                              -86.13  14491.46     33.90
                              -58.72     33.90  14428.61

     exc-cor stress (kbar)  -2309.91     -0.45     -0.28
                               -0.45  -2310.42      0.16
                               -0.28      0.16  -2310.75

     corecor stress (kbar)  -2682.95      0.10      0.07
                                0.10  -2682.84     -0.04
                                0.07     -0.04  -2682.76

     ewald   stress (kbar) -21839.94   -165.65   -116.63
                             -165.65 -22031.22     67.34
                             -116.63     67.34 -22152.75

     hubbard stress (kbar)      0.00      0.00      0.00
                                0.00      0.00      0.00
                                0.00      0.00      0.00

     DFT-D   stress (kbar)      0.00      0.00      0.00
                                0.00      0.00      0.00
                                0.00      0.00      0.00

     XDM     stress (kbar)      0.00      0.00      0.00
                                0.00      0.00      0.00
                                0.00      0.00      0.00

     dft-nl  stress (kbar)      0.00      0.00      0.00
                                0.00      0.00      0.00
                                0.00      0.00      0.00

     TS-vdW  stress (kbar)      0.00      0.00      0.00
                                0.00      0.00      0.00
                                0.00      0.00      0.00

     MDB     stress (kbar)      0.00      0.00      0.00
                                0.00      0.00      0.00
                                0.00      0.00      0.00

     3D-RISM stress (kbar)      0.00      0.00      0.00
                                0.00      0.00      0.00
                                0.00      0.00      0.00


     BFGS Geometry Optimization
     Energy error            =      0.0E+00 Ry
     Gradient error          =      3.0E-05 Ry/Bohr
     Cell gradient error     =      5.8E+02 kbar

     number of scf cycles    =   1
     number of bfgs steps    =   0

     enthalpy           new  =    -705.3219473936 Ry

     new trust radius        =       0.4708806796 bohr
WARNING! With ibrav=0, cell_dofree='ibrav' has no effect. 
     new conv_thr            =            1.0E-10 Ry

     new unit-cell volume =    418.78206 a.u.^3 (    62.05710 Ang^3 )
     density =      4.65610 g/cm^3

CELL_PARAMETERS (angstrom)
   7.054106243   0.000216972   0.001571397
   1.763620309   3.054680502  -0.000000018
   1.764199195   1.017892519   2.880254814

ATOMIC_POSITIONS (crystal)
Mn1              0.3737318241        0.7506573021        0.7512216876
Mn2              0.8737324541        0.7506568669        0.7512213569
S                0.0012679439        0.9993428600        0.9987784282
S                0.5012677649        0.9993429709        0.9987785273



     Writing config-only to output data dir ./temp/mns.save/ :
     XML data file
     NEW-OLD atomic charge density approx. for the potential

     Check: negative core charge=   -0.000111

     total cpu time spent up to now is       34.7 secs

     Self-consistent Calculation

     iteration #  1     ecut=    30.00 Ry     beta= 0.70
     Davidson diagonalization with overlap

---- Real-time Memory Report at c_bands before calling an iterative solver
            63 MiB given to the printing process from OS
             0 MiB allocation reported by mallinfo(arena+hblkhd)
          2263 MiB available memory on the node where the printing process lives
------------------
     c_bands:  1 eigenvalues not converged
     ethr =  1.00E-06,  avg # of iterations = 12.1

     total cpu time spent up to now is       39.4 secs

     total energy              =    -704.11367976 Ry
     estimated scf accuracy    <       1.48626017 Ry

     iteration #  2     ecut=    30.00 Ry     beta= 0.70
     Davidson diagonalization with overlap

---- Real-time Memory Report at c_bands before calling an iterative solver
            63 MiB given to the printing process from OS
             0 MiB allocation reported by mallinfo(arena+hblkhd)
          2258 MiB available memory on the node where the printing process lives
------------------
     ethr =  3.54E-03,  avg # of iterations =  6.5

     total cpu time spent up to now is       41.8 secs

     total energy              =    -704.02908827 Ry
     estimated scf accuracy    <      16.72618707 Ry

     iteration #  3     ecut=    30.00 Ry     beta= 0.70
     Davidson diagonalization with overlap

---- Real-time Memory Report at c_bands before calling an iterative solver
            63 MiB given to the printing process from OS
             0 MiB allocation reported by mallinfo(arena+hblkhd)
          2258 MiB available memory on the node where the printing process lives
------------------
     ethr =  3.54E-03,  avg # of iterations =  5.2

     total cpu time spent up to now is       43.9 secs

     total energy              =    -705.61256261 Ry
     estimated scf accuracy    <       0.48798337 Ry

     iteration #  4     ecut=    30.00 Ry     beta= 0.70
     Davidson diagonalization with overlap

---- Real-time Memory Report at c_bands before calling an iterative solver
            63 MiB given to the printing process from OS
             0 MiB allocation reported by mallinfo(arena+hblkhd)
          2256 MiB available memory on the node where the printing process lives
------------------
     ethr =  1.16E-03,  avg # of iterations =  3.4

     total cpu time spent up to now is       45.3 secs

     total energy              =    -705.63981470 Ry
     estimated scf accuracy    <       0.18774363 Ry

     iteration #  5     ecut=    30.00 Ry     beta= 0.70
     Davidson diagonalization with overlap

---- Real-time Memory Report at c_bands before calling an iterative solver
            63 MiB given to the printing process from OS
             0 MiB allocation reported by mallinfo(arena+hblkhd)
          2259 MiB available memory on the node where the printing process lives
------------------
     ethr =  4.47E-04,  avg # of iterations =  1.9

     total cpu time spent up to now is       46.5 secs

     total energy              =    -705.67074209 Ry
     estimated scf accuracy    <       0.18756453 Ry

     iteration #  6     ecut=    30.00 Ry     beta= 0.70
     Davidson diagonalization with overlap

---- Real-time Memory Report at c_bands before calling an iterative solver
            63 MiB given to the printing process from OS
             0 MiB allocation reported by mallinfo(arena+hblkhd)
          2243 MiB available memory on the node where the printing process lives
------------------
     ethr =  4.47E-04,  avg # of iterations =  1.9

     total cpu time spent up to now is       47.9 secs

     total energy              =    -705.68462334 Ry
     estimated scf accuracy    <       0.01810931 Ry

     iteration #  7     ecut=    30.00 Ry     beta= 0.70
     Davidson diagonalization with overlap

---- Real-time Memory Report at c_bands before calling an iterative solver
            63 MiB given to the printing process from OS
             0 MiB allocation reported by mallinfo(arena+hblkhd)
          2238 MiB available memory on the node where the printing process lives
------------------
     ethr =  4.31E-05,  avg # of iterations =  4.8

     total cpu time spent up to now is       49.7 secs

     total energy              =    -705.68976381 Ry
     estimated scf accuracy    <       0.00213102 Ry

     iteration #  8     ecut=    30.00 Ry     beta= 0.70
     Davidson diagonalization with overlap

---- Real-time Memory Report at c_bands before calling an iterative solver
            63 MiB given to the printing process from OS
             0 MiB allocation reported by mallinfo(arena+hblkhd)
          2251 MiB available memory on the node where the printing process lives
------------------
     ethr =  5.07E-06,  avg # of iterations =  3.7

     total cpu time spent up to now is       51.2 secs

     total energy              =    -705.69061705 Ry
     estimated scf accuracy    <       0.00123078 Ry

     iteration #  9     ecut=    30.00 Ry     beta= 0.70
     Davidson diagonalization with overlap

---- Real-time Memory Report at c_bands before calling an iterative solver
            63 MiB given to the printing process from OS
             0 MiB allocation reported by mallinfo(arena+hblkhd)
          2254 MiB available memory on the node where the printing process lives
------------------
     ethr =  2.93E-06,  avg # of iterations =  1.9

     total cpu time spent up to now is       52.5 secs

     total energy              =    -705.69066160 Ry
     estimated scf accuracy    <       0.00039502 Ry

     iteration # 10     ecut=    30.00 Ry     beta= 0.70
     Davidson diagonalization with overlap

---- Real-time Memory Report at c_bands before calling an iterative solver
            63 MiB given to the printing process from OS
             0 MiB allocation reported by mallinfo(arena+hblkhd)
          2249 MiB available memory on the node where the printing process lives
------------------
     ethr =  9.41E-07,  avg # of iterations =  2.5

     total cpu time spent up to now is       53.8 secs

     total energy              =    -705.69068812 Ry
     estimated scf accuracy    <       0.00009639 Ry

     iteration # 11     ecut=    30.00 Ry     beta= 0.70
     Davidson diagonalization with overlap

---- Real-time Memory Report at c_bands before calling an iterative solver
            63 MiB given to the printing process from OS
             0 MiB allocation reported by mallinfo(arena+hblkhd)
          2254 MiB available memory on the node where the printing process lives
------------------
     ethr =  2.29E-07,  avg # of iterations =  4.2

     total cpu time spent up to now is       55.3 secs

     total energy              =    -705.69071044 Ry
     estimated scf accuracy    <       0.00000314 Ry

     iteration # 12     ecut=    30.00 Ry     beta= 0.70
     Davidson diagonalization with overlap

---- Real-time Memory Report at c_bands before calling an iterative solver
            63 MiB given to the printing process from OS
             0 MiB allocation reported by mallinfo(arena+hblkhd)
          2255 MiB available memory on the node where the printing process lives
------------------
     ethr =  7.47E-09,  avg # of iterations =  5.3

     total cpu time spent up to now is       57.1 secs

     total energy              =    -705.69071216 Ry
     estimated scf accuracy    <       0.00000060 Ry

     iteration # 13     ecut=    30.00 Ry     beta= 0.70
     Davidson diagonalization with overlap

---- Real-time Memory Report at c_bands before calling an iterative solver
            63 MiB given to the printing process from OS
             0 MiB allocation reported by mallinfo(arena+hblkhd)
          2256 MiB available memory on the node where the printing process lives
------------------
     ethr =  1.42E-09,  avg # of iterations =  2.2

     total cpu time spent up to now is       58.4 secs

     total energy              =    -705.69071217 Ry
     estimated scf accuracy    <       0.00000008 Ry

     iteration # 14     ecut=    30.00 Ry     beta= 0.70
     Davidson diagonalization with overlap

---- Real-time Memory Report at c_bands before calling an iterative solver
            63 MiB given to the printing process from OS
             0 MiB allocation reported by mallinfo(arena+hblkhd)
          2255 MiB available memory on the node where the printing process lives
------------------
     ethr =  1.96E-10,  avg # of iterations =  4.4

     total cpu time spent up to now is       60.2 secs

     total energy              =    -705.69071219 Ry
     estimated scf accuracy    <       0.00000003 Ry

     iteration # 15     ecut=    30.00 Ry     beta= 0.70
     Davidson diagonalization with overlap

---- Real-time Memory Report at c_bands before calling an iterative solver
            63 MiB given to the printing process from OS
             0 MiB allocation reported by mallinfo(arena+hblkhd)
          2258 MiB available memory on the node where the printing process lives
------------------
     ethr =  6.55E-11,  avg # of iterations =  2.4

     total cpu time spent up to now is       61.8 secs

     total energy              =    -705.69071219 Ry
     estimated scf accuracy    <       0.00000002 Ry

     iteration # 16     ecut=    30.00 Ry     beta= 0.70
     Davidson diagonalization with overlap

---- Real-time Memory Report at c_bands before calling an iterative solver
            63 MiB given to the printing process from OS
             0 MiB allocation reported by mallinfo(arena+hblkhd)
          2263 MiB available memory on the node where the printing process lives
------------------
     ethr =  3.78E-11,  avg # of iterations =  1.8

     total cpu time spent up to now is       63.7 secs

     total energy              =    -705.69071219 Ry
     estimated scf accuracy    <          1.1E-09 Ry

     iteration # 17     ecut=    30.00 Ry     beta= 0.70
     Davidson diagonalization with overlap

---- Real-time Memory Report at c_bands before calling an iterative solver
            63 MiB given to the printing process from OS
             0 MiB allocation reported by mallinfo(arena+hblkhd)
          2210 MiB available memory on the node where the printing process lives
------------------
     ethr =  2.72E-12,  avg # of iterations =  5.3

     total cpu time spent up to now is       65.7 secs

     total energy              =    -705.69071219 Ry
     estimated scf accuracy    <          4.7E-10 Ry

     iteration # 18     ecut=    30.00 Ry     beta= 0.70
     Davidson diagonalization with overlap

---- Real-time Memory Report at c_bands before calling an iterative solver
            63 MiB given to the printing process from OS
             0 MiB allocation reported by mallinfo(arena+hblkhd)
          2218 MiB available memory on the node where the printing process lives
------------------
     ethr =  1.12E-12,  avg # of iterations =  1.5

     total cpu time spent up to now is       67.0 secs

     total energy              =    -705.69071219 Ry
     estimated scf accuracy    <          1.7E-10 Ry

     iteration # 19     ecut=    30.00 Ry     beta= 0.70
     Davidson diagonalization with overlap

---- Real-time Memory Report at c_bands before calling an iterative solver
            63 MiB given to the printing process from OS
             0 MiB allocation reported by mallinfo(arena+hblkhd)
          2238 MiB available memory on the node where the printing process lives
------------------
     ethr =  3.93E-13,  avg # of iterations =  3.3

     total cpu time spent up to now is       68.7 secs

     End of self-consistent calculation

          k = 0.0000 0.0000 0.0000 (  1617 PWs)   bands (ev):

   -67.6312 -67.6297 -36.4571 -36.4399 -36.4387 -36.4367 -36.4363 -36.4323
    -3.9076  -2.6755   4.7455   6.6251   6.6639   6.6692   6.9591   6.9622
    10.5502  10.5513  10.7926  10.7986  10.9437  13.0912  13.0958  14.8188
    14.8342

     occupation numbers 
     1.0000   1.0000   1.0000   1.0000   1.0000   1.0000   1.0000   1.0000
     1.0000   1.0000   1.0000   1.0000   1.0000   1.0000   1.0000   1.0000
     1.0000   1.0000   1.0000   1.0000   0.9999   0.0000   0.0000   0.0000
     0.0000

          k =-0.0001 0.0001 0.5434 (  1600 PWs)   bands (ev):

   -67.6307 -67.6296 -36.4537 -36.4445 -36.4437 -36.4417 -36.4373 -36.4335
    -3.5317  -2.5538   5.0954   5.9633   6.5613   6.7474   6.7715   7.0604
    10.1929  10.4955  10.4983  10.8470  10.9443  12.6114  12.7580  13.0899
    14.3791

     occupation numbers 
     1.0000   1.0000   1.0000   1.0000   1.0000   1.0000   1.0000   1.0000
     1.0000   1.0000   1.0000   1.0000   1.0000   1.0000   1.0000   1.0000
     1.0000   1.0000   1.0000   1.0000   0.9999   0.0000   0.0000   0.0000
     0.0000

          k =-0.0002 0.0001 1.0868 (  1578 PWs)   bands (ev):

   -67.6298 -67.6292 -36.4571 -36.4543 -36.4451 -36.4443 -36.4394 -36.4357
    -2.8219  -2.3209   4.8092   4.9234   6.8948   6.8958   7.0633   7.2410
     9.6445  10.6949  10.7115  10.9762  11.0788  11.2868  11.7726  11.9445
    13.3825

     occupation numbers 
     1.0000   1.0000   1.0000   1.0000   1.0000   1.0000   1.0000   1.0000
     1.0000   1.0000   1.0000   1.0000   1.0000   1.0000   1.0000   1.0000
     1.0000   1.0000   1.0000   0.9995   0.9871   0.5264   0.0000   0.0000
     0.0000

          k = 0.0000 0.5123-0.1811 (  1600 PWs)   bands (ev):

   -67.6307 -67.6296 -36.4550 -36.4437 -36.4435 -36.4405 -36.4377 -36.4341
    -3.5315  -2.5535   5.0962   5.9592   6.5605   6.7522   6.7762   7.0597
    10.1912  10.4931  10.4983  10.8503  10.9448  12.6116  12.7563  13.0889
    14.3621

     occupation numbers 
     1.0000   1.0000   1.0000   1.0000   1.0000   1.0000   1.0000   1.0000
     1.0000   1.0000   1.0000   1.0000   1.0000   1.0000   1.0000   1.0000
     1.0000   1.0000   1.0000   1.0000   0.9999   0.0000   0.0000   0.0000
     0.0000

          k =-0.0001 0.5124 0.3623 (  1598 PWs)   bands (ev):

   -67.6305 -67.6297 -36.4518 -36.4448 -36.4442 -36.4394 -36.4389 -36.4354
    -3.4056  -2.7135   5.3163   5.8442   6.4020   6.7878   6.8183   7.0396
    10.0872  10.3686  10.6298  10.7651  11.3224  12.3552  13.4996  13.5352
    13.5375

     occupation numbers 
     1.0000   1.0000   1.0000   1.0000   1.0000   1.0000   1.0000   1.0000
     1.0000   1.0000   1.0000   1.0000   1.0000   1.0000   1.0000   1.0000
     1.0000   1.0000   1.0000   1.0000   0.3808   0.0000   0.0000   0.0000
     0.0000

          k =-0.0002 0.5124 0.9057 (  1588 PWs)   bands (ev):

   -67.6298 -67.6295 -36.4539 -36.4522 -36.4438 -36.4424 -36.4421 -36.4377
    -2.7952  -2.5727   5.1842   5.2176   6.5853   6.7429   6.9595   7.0680
    10.0095  10.0798  10.7516  10.9190  11.2468  11.5018  12.1829  12.7117
    12.9576

     occupation numbers 
     1.0000   1.0000   1.0000   1.0000   1.0000   1.0000   1.0000   1.0000
     1.0000   1.0000   1.0000   1.0000   1.0000   1.0000   1.0000   1.0000
     1.0000   1.0000   1.0000   0.9999   0.6850   0.0150   0.0000   0.0000
     0.0000

          k = 0.0003 0.5122-1.2678 (  1573 PWs)   bands (ev):

   -67.6294 -67.6292 -36.4565 -36.4534 -36.4473 -36.4445 -36.4433 -36.4377
    -2.5273  -2.3175   5.1252   5.1536   6.3586   6.5351   7.0356   7.1618
     9.6886  10.3330  10.6007  10.6161  11.1217  11.1389  11.8729  12.4171
    12.4268

     occupation numbers 
     1.0000   1.0000   1.0000   1.0000   1.0000   1.0000   1.0000   1.0000
     1.0000   1.0000   1.0000   1.0000   1.0000   1.0000   1.0000   1.0000
     1.0000   1.0000   1.0000   1.0000   0.9626   0.9456   0.0000   0.0000
     0.0000

          k = 0.0001 0.5122-0.7244 (  1585 PWs)   bands (ev):

   -67.6300 -67.6292 -36.4530 -36.4499 -36.4470 -36.4440 -36.4426 -36.4354
    -3.0330  -2.3129   5.5110   5.5506   6.0091   6.5346   6.9316   7.1375
     9.6862  10.2789  10.4251  10.7773  11.1582  11.8937  12.0017  12.6324
    12.7062

     occupation numbers 
     1.0000   1.0000   1.0000   1.0000   1.0000   1.0000   1.0000   1.0000
     1.0000   1.0000   1.0000   1.0000   1.0000   1.0000   1.0000   1.0000
     1.0000   1.0000   1.0000   1.0000   0.9197   0.0000   0.0000   0.0000
     0.0000

          k = 0.0000 1.0246-0.3621 (  1578 PWs)   bands (ev):

   -67.6298 -67.6292 -36.4577 -36.4559 -36.4448 -36.4413 -36.4398 -36.4365
    -2.8212  -2.3204   4.8114   4.9225   6.9006   6.9040   7.0564   7.2434
     9.6465  10.6911  10.7124  10.9763  11.0804  11.2784  11.7687  11.9466
    13.3711

     occupation numbers 
     1.0000   1.0000   1.0000   1.0000   1.0000   1.0000   1.0000   1.0000
     1.0000   1.0000   1.0000   1.0000   1.0000   1.0000   1.0000   1.0000
     1.0000   1.0000   1.0000   0.9995   0.9865   0.5611   0.0000   0.0000
     0.0000

          k =-0.0001 1.0247 0.1813 (  1588 PWs)   bands (ev):

   -67.6298 -67.6295 -36.4540 -36.4529 -36.4453 -36.4426 -36.4392 -36.4382
    -2.7947  -2.5723   5.1853   5.2172   6.5859   6.7481   6.9640   7.0646
    10.0107  10.0775  10.7518  10.9173  11.2473  11.4926  12.1843  12.7044
    12.9574

     occupation numbers 
     1.0000   1.0000   1.0000   1.0000   1.0000   1.0000   1.0000   1.0000
     1.0000   1.0000   1.0000   1.0000   1.0000   1.0000   1.0000   1.0000
     1.0000   1.0000   1.0000   1.0000   0.6835   0.0191   0.0000   0.0000
     0.0000

          k =-0.0002 1.0247 0.7246 (  1582 PWs)   bands (ev):

   -67.6297 -67.6294 -36.4566 -36.4565 -36.4443 -36.4409 -36.4403 -36.4377
    -2.6954  -2.4596   4.8359   4.9220   6.7586   6.9538   7.1553   7.1893
     9.6212  10.6372  10.7322  11.1028  11.1323  11.6731  11.8208  11.8572
    12.8635

     occupation numbers 
     1.0000   1.0000   1.0000   1.0000   1.0000   1.0000   1.0000   1.0000
     1.0000   1.0000   1.0000   1.0000   1.0000   1.0000   1.0000   1.0000
     1.0000   1.0000   1.0000   0.9761   0.9528   0.0000   0.0000   0.0000
     0.0000

          k = 0.0003 1.0245-1.4489 (  1588 PWs)   bands (ev):

   -67.6295 -67.6292 -36.4566 -36.4563 -36.4475 -36.4435 -36.4407 -36.4387
    -2.5484  -2.2890   5.0347   5.0349   6.5085   6.6273   7.0142   7.1952
     9.6349  10.4130  10.6852  10.8626  10.9109  11.0355  12.0183  12.1097
    12.6118

     occupation numbers 
     1.0000   1.0000   1.0000   1.0000   1.0000   1.0000   1.0000   1.0000
     1.0000   1.0000   1.0000   1.0000   1.0000   1.0000   1.0000   1.0000
     1.0000   1.0000   1.0000   1.0000   1.0000   0.9963   0.0000   0.0000
     0.0000

          k = 0.0002 1.0245-0.9055 (  1573 PWs)   bands (ev):

   -67.6294 -67.6292 -36.4558 -36.4555 -36.4466 -36.4454 -36.4415 -36.4379
    -2.5268  -2.3172   5.1268   5.1531   6.3629   6.5353   7.0402   7.1586
     9.6895  10.3285  10.6009  10.6139  11.1222  11.1372  11.8717  12.4150
    12.4283

     occupation numbers 
     1.0000   1.0000   1.0000   1.0000   1.0000   1.0000   1.0000   1.0000
     1.0000   1.0000   1.0000   1.0000   1.0000   1.0000   1.0000   1.0000
     1.0000   1.0000   1.0000   1.0000   0.9622   0.9476   0.0000   0.0000
     0.0000

          k = 0.3698-0.2135-0.1510 (  1605 PWs)   bands (ev):

   -67.6308 -67.6301 -36.4514 -36.4404 -36.4391 -36.4378 -36.4370 -36.4351
    -3.6377  -3.0287   5.2011   6.1209   6.7564   6.7597   6.9064   6.9072
    10.4939  10.4956  10.5785  10.5828  11.6954  13.4610  13.6364  13.6381
    14.4660

     occupation numbers 
     1.0000   1.0000   1.0000   1.0000   1.0000   1.0000   1.0000   1.0000
     1.0000   1.0000   1.0000   1.0000   1.0000   1.0000   1.0000   1.0000
     1.0000   1.0000   1.0000   1.0000   0.0000   0.0000   0.0000   0.0000
     0.0000

          k = 0.3697-0.2134 0.3923 (  1594 PWs)   bands (ev):

   -67.6306 -67.6296 -36.4538 -36.4429 -36.4415 -36.4402 -36.4388 -36.4368
    -3.4743  -2.6294   5.2589   5.9395   6.3719   6.7628   6.7897   7.0572
    10.1548  10.4367  10.4997  10.7320  11.2589  12.3136  13.3412  13.6065
    13.6744

     occupation numbers 
     1.0000   1.0000   1.0000   1.0000   1.0000   1.0000   1.0000   1.0000
     1.0000   1.0000   1.0000   1.0000   1.0000   1.0000   1.0000   1.0000
     1.0000   1.0000   1.0000   1.0000   0.6392   0.0000   0.0000   0.0000
     0.0000

          k = 0.3695-0.2134 0.9357 (  1583 PWs)   bands (ev):

   -67.6298 -67.6292 -36.4538 -36.4533 -36.4467 -36.4430 -36.4409 -36.4385
    -2.8290  -2.3322   5.2084   5.2688   6.2679   6.7152   6.9430   7.1768
     9.7287  10.1990  10.7446  10.8905  11.0036  11.4907  12.1011  12.3896
    12.8684

     occupation numbers 
     1.0000   1.0000   1.0000   1.0000   1.0000   1.0000   1.0000   1.0000
     1.0000   1.0000   1.0000   1.0000   1.0000   1.0000   1.0000   1.0000
     1.0000   1.0000   1.0000   1.0000   0.9987   0.0200   0.0000   0.0000
     0.0000

          k = 0.3700-0.2136-1.2378 (  1581 PWs)   bands (ev):

   -67.6295 -67.6295 -36.4571 -36.4524 -36.4433 -36.4427 -36.4405 -36.4401
    -2.5845  -2.5829   4.9691   5.0572   6.5063   7.0089   7.0387   7.1189
     9.6803  10.4811  10.6193  11.0729  11.1143  11.6898  12.0657  12.3540
    12.5372

     occupation numbers 
     1.0000   1.0000   1.0000   1.0000   1.0000   1.0000   1.0000   1.0000
     1.0000   1.0000   1.0000   1.0000   1.0000   1.0000   1.0000   1.0000
     1.0000   1.0000   1.0000   0.9890   0.9685   0.0000   0.0000   0.0000
     0.0000

          k = 0.3699-0.2136-0.6944 (  1602 PWs)   bands (ev):

   -67.6302 -67.6300 -36.4496 -36.4468 -36.4412 -36.4409 -36.4381 -36.4379
    -3.1398  -3.0097   5.3922   5.5756   6.6214   6.8325   6.9194   6.9431
     9.9830  10.2815  10.7251  10.8725  12.1527  12.2293  12.8763  12.8921
    13.4890

     occupation numbers 
     1.0000   1.0000   1.0000   1.0000   1.0000   1.0000   1.0000   1.0000
     1.0000   1.0000   1.0000   1.0000   1.0000   1.0000   1.0000   1.0000
     1.0000   1.0000   1.0000   1.0000   0.0000   0.0000   0.0000   0.0000
     0.0000

          k = 0.3698 0.2988-0.3321 (  1594 PWs)   bands (ev):

   -67.6306 -67.6296 -36.4528 -36.4450 -36.4434 -36.4392 -36.4390 -36.4348
    -3.4740  -2.6292   5.2596   5.9407   6.3762   6.7575   6.7934   7.0574
    10.1543  10.4388  10.4934  10.7331  11.2538  12.3130  13.3412  13.6108
    13.6673

     occupation numbers 
     1.0000   1.0000   1.0000   1.0000   1.0000   1.0000   1.0000   1.0000
     1.0000   1.0000   1.0000   1.0000   1.0000   1.0000   1.0000   1.0000
     1.0000   1.0000   1.0000   1.0000   0.6590   0.0000   0.0000   0.0000
     0.0000

          k = 0.3697 0.2989 0.2113 (  1598 PWs)   bands (ev):

   -67.6307 -67.6295 -36.4552 -36.4441 -36.4430 -36.4404 -36.4377 -36.4339
    -3.5600  -2.5164   5.0992   6.0162   6.4941   6.7391   6.7638   7.0700
[...]

     occupation numbers 
     1.0000   1.0000   1.0000   1.0000   1.0000   1.0000   1.0000   1.0000
     1.0000   1.0000   1.0000   1.0000   1.0000   1.0000   1.0000   1.0000
     1.0000   1.0000   1.0000   1.0000   0.9427   0.0000   0.0000   0.0000
     0.0000

          k = 0.3713 0.3071-1.4427 (  1122 PWs)   bands (ev):

   -67.4734 -67.4731 -36.2752 -36.2738 -36.2635 -36.2620 -36.2616 -36.2586
    -2.0328  -1.7998   5.5039   5.5531   6.8954   7.1195   7.4610   7.6756
    10.1098  10.9235  11.1526  11.2363  11.6261  11.6842  12.5468  12.9538
    13.2056

     occupation numbers 
     1.0000   1.0000   1.0000   1.0000   1.0000   1.0000   1.0000   1.0000
     1.0000   1.0000   1.0000   1.0000   1.0000   1.0000   1.0000   1.0000
     1.0000   1.0000   1.0000   1.0000   0.9971   0.9846   0.0000   0.0000
     0.0000

          k = 0.3724 0.3065-0.8900 (  1117 PWs)   bands (ev):

   -67.4737 -67.4733 -36.2749 -36.2703 -36.2635 -36.2599 -36.2565 -36.2561
    -2.3793  -2.0192   5.6684   5.7228   6.9874   7.2127   7.3718   7.5945
    10.4592  10.6074  11.1203  11.4742  11.8593  12.2801  12.6429  13.4430
    13.6248

     occupation numbers 
     1.0000   1.0000   1.0000   1.0000   1.0000   1.0000   1.0000   1.0000
     1.0000   1.0000   1.0000   1.0000   1.0000   1.0000   1.0000   1.0000
     1.0000   1.0000   1.0000   1.0000   0.6334   0.0000   0.0000   0.0000
     0.0000

          k = 0.3765 0.8256-0.5221 (  1115 PWs)   bands (ev):

   -67.4737 -67.4731 -36.2750 -36.2707 -36.2686 -36.2628 -36.2558 -36.2535
    -2.3417  -1.8327   5.6395   5.7083   6.7593   7.1696   7.4305   7.6967
    10.1984  10.6780  11.3086  11.4925  11.5910  12.1492  12.7436  13.0712
    13.5778

     occupation numbers 
     1.0000   1.0000   1.0000   1.0000   1.0000   1.0000   1.0000   1.0000
     1.0000   1.0000   1.0000   1.0000   1.0000   1.0000   1.0000   1.0000
     1.0000   1.0000   1.0000   1.0000   0.9991   0.0038   0.0000   0.0000
     0.0000

          k = 0.3776 0.8250 0.0305 (  1114 PWs)   bands (ev):

   -67.4739 -67.4731 -36.2765 -36.2673 -36.2664 -36.2615 -36.2567 -36.2528
    -2.5497  -1.8271   5.9391   5.9474   6.5667   7.0029   7.4019   7.6525
    10.1678  10.7459  10.9474  11.3756  11.7637  12.5359  12.6539  13.3488
    13.3945

     occupation numbers 
     1.0000   1.0000   1.0000   1.0000   1.0000   1.0000   1.0000   1.0000
     1.0000   1.0000   1.0000   1.0000   1.0000   1.0000   1.0000   1.0000
     1.0000   1.0000   1.0000   1.0000   0.9091   0.0000   0.0000   0.0000
     0.0000

          k = 0.3786 0.8244 0.5832 (  1113 PWs)   bands (ev):

   -67.4735 -67.4732 -36.2739 -36.2705 -36.2684 -36.2641 -36.2547 -36.2546
    -2.2630  -1.9206   5.6193   5.7793   6.6354   7.2260   7.5092   7.6195
    10.4339  10.4453  11.2182  11.5824  11.6983  12.2494  12.8362  13.2271
    13.4273

     occupation numbers 
     1.0000   1.0000   1.0000   1.0000   1.0000   1.0000   1.0000   1.0000
     1.0000   1.0000   1.0000   1.0000   1.0000   1.0000   1.0000   1.0000
     1.0000   1.0000   1.0000   0.9994   0.9780   0.0001   0.0000   0.0000
     0.0000

          k = 0.3745 0.8267-1.6274 (  1122 PWs)   bands (ev):

   -67.4733 -67.4731 -36.2737 -36.2732 -36.2661 -36.2658 -36.2594 -36.2567
    -1.9899  -1.8510   5.7070   5.7662   6.6484   6.8547   7.5497   7.6073
    10.2847  10.7247  11.0268  11.0366  11.7976  11.8293  12.5028  12.8294
    13.3114

     occupation numbers 
     1.0000   1.0000   1.0000   1.0000   1.0000   1.0000   1.0000   1.0000
     1.0000   1.0000   1.0000   1.0000   1.0000   1.0000   1.0000   1.0000
     1.0000   1.0000   1.0000   1.0000   0.8371   0.7431   0.0000   0.0000
     0.0000

          k = 0.3755 0.8261-1.0748 (  1117 PWs)   bands (ev):

   -67.4732 -67.4731 -36.2722 -36.2722 -36.2672 -36.2672 -36.2585 -36.2575
    -1.9387  -1.9063   5.8462   5.8664   6.5865   6.6468   7.5796   7.5874
    10.4575  10.5487  10.9906  11.0002  11.8435  11.8854  12.5809  12.6402
    13.5091

     occupation numbers 
     1.0000   1.0000   1.0000   1.0000   1.0000   1.0000   1.0000   1.0000
     1.0000   1.0000   1.0000   1.0000   1.0000   1.0000   1.0000   1.0000
     1.0000   1.0000   1.0000   1.0000   0.6932   0.5276   0.0000   0.0000
     0.0000

          k = 0.3640-1.2531 0.2170 (  1125 PWs)   bands (ev):

   -67.4735 -67.4734 -36.2753 -36.2742 -36.2643 -36.2636 -36.2562 -36.2532
    -2.0939  -2.0888   5.4029   5.5156   6.9615   7.4801   7.4865   7.6415
    10.1357  10.9841  11.1608  11.6602  11.6996  12.3571  12.6973  12.9445
    13.1327

     occupation numbers 
     1.0000   1.0000   1.0000   1.0000   1.0000   1.0000   1.0000   1.0000
     1.0000   1.0000   1.0000   1.0000   1.0000   1.0000   1.0000   1.0000
     1.0000   1.0000   1.0000   0.9920   0.9773   0.0000   0.0000   0.0000
     0.0000

          k = 0.3650-1.2537 0.7696 (  1121 PWs)   bands (ev):

   -67.4734 -67.4730 -36.2759 -36.2750 -36.2641 -36.2626 -36.2607 -36.2566
    -2.0389  -1.7909   5.5174   5.5462   6.8877   7.1142   7.4967   7.6403
    10.1224  10.9231  11.1443  11.2473  11.6531  11.6651  12.5560  12.9430
    13.1912

     occupation numbers 
     1.0000   1.0000   1.0000   1.0000   1.0000   1.0000   1.0000   1.0000
     1.0000   1.0000   1.0000   1.0000   1.0000   1.0000   1.0000   1.0000
     1.0000   1.0000   1.0000   1.0000   0.9935   0.9909   0.0000   0.0000
     0.0000

          k = 0.3660-1.2543 1.3223 (  1118 PWs)   bands (ev):

   -67.4733 -67.4731 -36.2741 -36.2732 -36.2655 -36.2651 -36.2594 -36.2574
    -1.9863  -1.8549   5.7092   5.7713   6.6631   6.8497   7.5257   7.6244
    10.2788  10.7279  11.0178  11.0439  11.8012  11.8423  12.4941  12.8632
    13.3369

     occupation numbers 
     1.0000   1.0000   1.0000   1.0000   1.0000   1.0000   1.0000   1.0000
     1.0000   1.0000   1.0000   1.0000   1.0000   1.0000   1.0000   1.0000
     1.0000   1.0000   1.0000   1.0000   0.8275   0.6976   0.0000   0.0000
     0.0000

          k = 0.3619-1.2519-0.8883 (  1121 PWs)   bands (ev):

   -67.4738 -67.4731 -36.2778 -36.2734 -36.2661 -36.2602 -36.2569 -36.2522
    -2.3745  -1.7842   5.3812   5.4796   7.2691   7.2843   7.3609   7.7744
    10.0695  11.0060  11.3622  11.4303  11.4916  12.0380  12.5950  12.6596
    14.0062

     occupation numbers 
     1.0000   1.0000   1.0000   1.0000   1.0000   1.0000   1.0000   1.0000
     1.0000   1.0000   1.0000   1.0000   1.0000   1.0000   1.0000   1.0000
     1.0000   1.0000   1.0000   1.0000   1.0000   0.0647   0.0000   0.0000
     0.0000

          k = 0.3630-1.2525-0.3357 (  1114 PWs)   bands (ev):

   -67.4738 -67.4732 -36.2758 -36.2702 -36.2649 -36.2606 -36.2559 -36.2537
    -2.4424  -1.9479   5.7311   5.7791   6.8725   7.1601   7.3940   7.6062
    10.4109  10.6525  11.0160  11.4501  11.8657  12.3936  12.5686  13.4647
    13.5380

     occupation numbers 
     1.0000   1.0000   1.0000   1.0000   1.0000   1.0000   1.0000   1.0000
     1.0000   1.0000   1.0000   1.0000   1.0000   1.0000   1.0000   1.0000
     1.0000   1.0000   1.0000   1.0000   0.6082   0.0000   0.0000   0.0000
     0.0000

          k = 0.3671-0.7334 0.0322 (  1124 PWs)   bands (ev):

   -67.4743 -67.4741 -36.2723 -36.2699 -36.2579 -36.2565 -36.2530 -36.2501
    -2.6903  -2.5538   5.8286   6.0280   7.0779   7.2792   7.4053   7.4451
    10.4710  10.7619  11.2481  11.4332  12.7139  12.7963  13.5489  13.5575
    14.2700

     occupation numbers 
     1.0000   1.0000   1.0000   1.0000   1.0000   1.0000   1.0000   1.0000
     1.0000   1.0000   1.0000   1.0000   1.0000   1.0000   1.0000   1.0000
     1.0000   1.0000   1.0000   1.0000   0.0000   0.0000   0.0000   0.0000
     0.0000

          k = 0.3682-0.7340 0.5848 (  1117 PWs)   bands (ev):

   -67.4738 -67.4733 -36.2751 -36.2705 -36.2624 -36.2600 -36.2577 -36.2555
    -2.3866  -2.0112   5.6719   5.7175   6.9631   7.2135   7.4047   7.5848
    10.4730  10.5965  11.1542  11.4694  11.8553  12.2593  12.6383  13.4465
    13.6289

     occupation numbers 
     1.0000   1.0000   1.0000   1.0000   1.0000   1.0000   1.0000   1.0000
     1.0000   1.0000   1.0000   1.0000   1.0000   1.0000   1.0000   1.0000
     1.0000   1.0000   1.0000   1.0000   0.6491   0.0001   0.0000   0.0000
     0.0000

          k = 0.3692-0.7346 1.1375 (  1115 PWs)   bands (ev):

   -67.4732 -67.4731 -36.2716 -36.2710 -36.2663 -36.2660 -36.2600 -36.2594
    -1.9369  -1.9107   5.8389   5.8682   6.5995   6.6550   7.5716   7.5882
    10.4496  10.5584  10.9768  11.0028  11.8629  11.8852  12.5598  12.6529
    13.5167

     occupation numbers 
     1.0000   1.0000   1.0000   1.0000   1.0000   1.0000   1.0000   1.0000
     1.0000   1.0000   1.0000   1.0000   1.0000   1.0000   1.0000   1.0000
     1.0000   1.0000   1.0000   1.0000   0.6194   0.5288   0.0000   0.0000
     0.0000

          k = 0.3651-0.7323-1.0731 (  1119 PWs)   bands (ev):

   -67.4738 -67.4733 -36.2755 -36.2694 -36.2632 -36.2597 -36.2580 -36.2553
    -2.4457  -1.9471   5.7257   5.7778   6.8579   7.1697   7.3938   7.6145
    10.4108  10.6343  11.0229  11.4443  11.8351  12.3834  12.5506  13.4844
    13.5328

     occupation numbers 
     1.0000   1.0000   1.0000   1.0000   1.0000   1.0000   1.0000   1.0000
     1.0000   1.0000   1.0000   1.0000   1.0000   1.0000   1.0000   1.0000
     1.0000   1.0000   1.0000   1.0000   0.7233   0.0000   0.0000   0.0000
     0.0000

          k = 0.3661-0.7328-0.5205 (  1125 PWs)   bands (ev):

   -67.4744 -67.4739 -36.2744 -36.2680 -36.2573 -36.2570 -36.2533 -36.2498
    -2.7966  -2.4400   5.7319   6.1023   7.1221   7.2593   7.3660   7.4816
    10.4990  10.7743  11.2075  11.4486  12.3349  13.0730  13.4286  13.8041
    14.1217

     occupation numbers 
     1.0000   1.0000   1.0000   1.0000   1.0000   1.0000   1.0000   1.0000
     1.0000   1.0000   1.0000   1.0000   1.0000   1.0000   1.0000   1.0000
     1.0000   1.0000   1.0000   1.0000   0.0000   0.0000   0.0000   0.0000
     0.0000

     the Fermi energy is    11.8921 ev

!    total energy              =    -705.46375772 Ry
     total all-electron energy =     -6231.180565 Ry
     estimated scf accuracy    <          2.9E-13 Ry
     smearing contrib. (-TS)   =      -0.00292951 Ry
     internal energy E=F+TS    =    -705.46082822 Ry

     The total energy is F=E-TS. E is the sum of the following terms:
     one-electron contribution =    -254.84248772 Ry
     hartree contribution      =     150.98054729 Ry
     xc contribution           =     -66.10865629 Ry
     ewald contribution        =    -288.04759692 Ry
     one-center paw contrib.   =    -247.44263458 Ry
      -> PAW hartree energy AE =     184.45680664 Ry
      -> PAW hartree energy PS =    -185.36871968 Ry
      -> PAW xc energy AE      =    -104.70122520 Ry
      -> PAW xc energy PS      =      28.02425530 Ry
      -> total E_H with PAW    =     150.06863425 Ry
      -> total E_XC with PAW   =    -142.78562619 Ry

     convergence has been achieved in  16 iterations

     Forces acting on atoms (cartesian axes, Ry/au):

     atom    1 type  1   force =    -0.00045412    0.00026219    0.00043960
     atom    2 type  2   force =    -0.00045354    0.00026185    0.00043944
     atom    3 type  3   force =     0.00045422   -0.00026224   -0.00043972
     atom    4 type  3   force =     0.00045344   -0.00026180   -0.00043933
     The non-local contrib.  to forces
     atom    1 type  1   force =    -0.00574287    0.00331565    0.00483940
     atom    2 type  2   force =    -0.00574210    0.00331520    0.00483901
     atom    3 type  3   force =    -0.00601634    0.00347354    0.00314270
     atom    4 type  3   force =    -0.00601719    0.00347403    0.00314311
     The ionic contribution  to forces
     atom    1 type  1   force =    -0.11956134    0.06902707    0.07588948
     atom    2 type  2   force =    -0.11956086    0.06902659    0.07589092
     atom    3 type  3   force =     0.11956495   -0.06902864   -0.07589212
     atom    4 type  3   force =     0.11955724   -0.06902502   -0.07588828
     The local contribution  to forces
     atom    1 type  1   force =     0.12532276   -0.07231407   -0.08056946
     atom    2 type  2   force =     0.12530392   -0.07234210   -0.08057016
     atom    3 type  3   force =    -0.11309413    0.06529275    0.07239546
     atom    4 type  3   force =    -0.11308715    0.06528899    0.07239183
     The core correction contribution to forces
     atom    1 type  1   force =    -0.00031195    0.00026382    0.00031530
     atom    2 type  2   force =    -0.00031214    0.00026353    0.00031532
     atom    3 type  3   force =     0.00010717   -0.00006107   -0.00005049
     atom    4 type  3   force =     0.00010719   -0.00006109   -0.00005050
     The Hubbard contrib.    to forces
     atom    1 type  1   force =     0.00000000    0.00000000    0.00000000
     atom    2 type  2   force =     0.00000000    0.00000000    0.00000000
     atom    3 type  3   force =     0.00000000    0.00000000    0.00000000
     atom    4 type  3   force =     0.00000000    0.00000000    0.00000000
     The SCF correction term to forces
     atom    1 type  1   force =    -0.00000063    0.00000036    0.00000027
     atom    2 type  2   force =     0.00000062   -0.00000036   -0.00000027
     atom    3 type  3   force =    -0.00000027    0.00000015    0.00000011
     atom    4 type  3   force =     0.00000026   -0.00000015   -0.00000011

     Total force =     0.001368     Total SCF correction =     0.000001


     Computing stress (Cartesian axis) and pressure

          total   stress  (Ry/bohr**3)                   (kbar)     P=     -500.47
  -0.00337936  -0.00002593  -0.00000598         -497.12       -3.81       -0.88
  -0.00002593  -0.00340930   0.00000345           -3.81     -501.53        0.51
  -0.00000598   0.00000345  -0.00341763           -0.88        0.51     -502.75

     kinetic stress (kbar)  22476.92    -20.83     -0.89
                              -20.83  22452.86      0.52
                               -0.89      0.52  22446.02

     local   stress (kbar)   2240.82    218.52      8.41
                              218.52   2493.15     -4.85
                                8.41     -4.85   2556.22

     nonloc. stress (kbar)  -1572.11     20.44      3.95
                               20.44  -1548.51     -2.28
                                3.95     -2.28  -1538.70

     hartree stress (kbar)  18367.04    -35.89     21.57
                              -35.89  18325.60    -12.45
                               21.57    -12.45  18328.99

     exc-cor stress (kbar)  -3353.20     -1.04     -0.35
                               -1.04  -3354.38      0.19
                               -0.35      0.19  -3354.88

     corecor stress (kbar)  -3831.47     -0.10     -0.46
                               -0.10  -3831.26      0.32
                               -0.46      0.32  -3831.73

     ewald   stress (kbar) -34825.24   -185.00    -33.08
                             -185.00 -35038.86     19.10
                              -33.08     19.10 -35108.68

     hubbard stress (kbar)      0.00      0.00      0.00
                                0.00      0.00      0.00
                                0.00      0.00      0.00

     DFT-D   stress (kbar)      0.00      0.00      0.00
                                0.00      0.00      0.00
                                0.00      0.00      0.00

     XDM     stress (kbar)      0.00      0.00      0.00
                                0.00      0.00      0.00
                                0.00      0.00      0.00

     dft-nl  stress (kbar)      0.00      0.00      0.00
                                0.00      0.00      0.00
                                0.00      0.00      0.00

     TS-vdW  stress (kbar)      0.00      0.00      0.00
                                0.00      0.00      0.00
                                0.00      0.00      0.00

     MDB     stress (kbar)      0.00      0.00      0.00
                                0.00      0.00      0.00
                                0.00      0.00      0.00

     3D-RISM stress (kbar)      0.00      0.00      0.00
                                0.00      0.00      0.00
                                0.00      0.00      0.00


     Writing all to output data dir ./temp/mns.save/ :
     XML data file, charge density, pseudopotentials, collected wavefunctions

     init_run     :      2.16s CPU      2.21s WALL (       2 calls)
     electrons    :    223.66s CPU    227.19s WALL (       9 calls)
     update_pot   :      0.99s CPU      0.99s WALL (       7 calls)
     forces       :      2.52s CPU      2.56s WALL (       9 calls)
     stress       :      8.23s CPU      8.24s WALL (       9 calls)

     Called by init_run:
     wfcinit      :      0.85s CPU      0.86s WALL (       2 calls)
     wfcinit:atom :      0.01s CPU      0.01s WALL (      76 calls)
     wfcinit:wfcr :      0.79s CPU      0.81s WALL (      76 calls)
     potinit      :      0.60s CPU      0.62s WALL (       2 calls)
     hinit0       :      0.59s CPU      0.59s WALL (       2 calls)

     Called by electrons:
     c_bands      :    173.77s CPU    176.57s WALL (     136 calls)
     sum_band     :     23.85s CPU     24.29s WALL (     136 calls)
     v_of_rho     :      0.66s CPU      0.69s WALL (     139 calls)
     v_h          :      0.04s CPU      0.04s WALL (     139 calls)
     v_xc         :      0.70s CPU      0.73s WALL (     157 calls)
     newd         :      7.82s CPU      7.86s WALL (     139 calls)
     PAW_pot      :     19.83s CPU     20.07s WALL (     146 calls)
     mix_rho      :      0.14s CPU      0.14s WALL (     136 calls)

     Called by c_bands:
     init_us_2    :      2.54s CPU      2.58s WALL (   11362 calls)
     cegterg      :    168.14s CPU    170.85s WALL (    5168 calls)

     Called by sum_band:
     sum_band:wei :      0.07s CPU      0.08s WALL (     136 calls)
     sum_band:loo :     15.76s CPU     16.16s WALL (     136 calls)
     sum_band:buf :      0.39s CPU      0.39s WALL (    5168 calls)
     sum_band:ini :      0.96s CPU      0.97s WALL (    5168 calls)
     sum_band:cal :      6.03s CPU      6.23s WALL (    5434 calls)
     sum_band:bec :      0.34s CPU      0.35s WALL (    5434 calls)
     addusdens    :      7.72s CPU      7.73s WALL (     136 calls)
                                        0.00s GPU  (     136 calls)
     addusd:skk   :      0.03s CPU      0.03s WALL (     408 calls)
                                        0.00s GPU  (     408 calls)

     Called by *egterg:
     cdiaghg      :     20.59s CPU     20.76s WALL (   23991 calls)
     cegterg:over :     15.92s CPU     16.22s WALL (   19317 calls)
     cegterg:upda :      7.30s CPU      7.35s WALL (   19317 calls)
     cegterg:last :     17.15s CPU     17.21s WALL (   12006 calls)
     h_psi        :     83.73s CPU     85.67s WALL (   24561 calls)
     s_psi        :     15.03s CPU     15.13s WALL (   24561 calls)
     g_psi        :      0.26s CPU      0.26s WALL (   19317 calls)

     Called by h_psi:
     h_psi:calbec :     18.86s CPU     19.51s WALL (   24561 calls)
     vloc_psi     :     48.62s CPU     49.79s WALL (   24561 calls)
     add_vuspsi   :     15.38s CPU     15.51s WALL (   24561 calls)

     General routines
     calbec       :     26.64s CPU     27.55s WALL (   31705 calls)
     fft          :      0.55s CPU      0.57s WALL (    2027 calls)
     ffts         :      0.30s CPU      0.30s WALL (     275 calls)
     fftw         :     48.92s CPU     50.11s WALL (  851806 calls)
     interpolate  :      0.33s CPU      0.33s WALL (     139 calls)

     Parallel routines

     PAW routines
     PAW_pot      :     19.83s CPU     20.07s WALL (     146 calls)
     PAW_symme    :      0.01s CPU      0.01s WALL (     282 calls)

     PWSCF        :   3m59.71s CPU   4m 3.41s WALL


   This run was terminated on:  16:55:47  31Jan2025            

=------------------------------------------------------------------------------=
   JOB DONE.
=------------------------------------------------------------------------------=
