
     Program PWSCF v.7.3.1 starts on  1Jan2025 at  7:30:33 

     This program is part of the open-source Quantum ESPRESSO suite
     for quantum simulation of materials; please cite
         "P. Giannozzi et al., J. Phys.:Condens. Matter 21 395502 (2009);
         "P. Giannozzi et al., J. Phys.:Condens. Matter 29 465901 (2017);
         "P. Giannozzi et al., J. Chem. Phys. 152 154105 (2020);
          URL http://www.quantum-espresso.org", 
     in publications or presentations arising from this work. More details at
     http://www.quantum-espresso.org/quote

     Parallel version (MPI), running on     6 processors

     MPI processes distributed on     1 nodes
     1753 MiB available memory on the printing compute node when the environment starts

     Reading input from bands.in
Warning: card  &IONS ignored
Warning: card  / ignored
Warning: card  &CELL ignored
Warning: card    CELL_DOFREE     = 'IBRAV' ignored
Warning: card  / ignored

     Current dimensions of program PWSCF are:
     Max number of different atomic species (ntypx) = 10
     Max number of k-points (npk) =  40000
     Max angular momentum in pseudopotentials (lmaxx) =  4
     file Fe.pbesol-spn-kjpaw_psl.1.0.0.UPF: wavefunction(s)  3P 3D renormalized
     file Fe.pbesol-spn-kjpaw_psl.1.0.0.UPF: wavefunction(s)  3P 3D renormalized

     Atomic positions and unit cell read from directory:
     ./temp/fe.save/

     Found identity + (  0.5000  0.5000  0.5000) symmetry
     This is a supercell, fractional translations are disabled

     R & G space division:  proc/nbgrp/npool/nimage =       6
     Subspace diagonalization in iterative solution of the eigenvalue problem:
     a serial algorithm will be used


     Parallelization info
     --------------------
     sticks:   dense  smooth     PW     G-vecs:    dense   smooth      PW
     Min         173      86     29                 4223     1486     274
     Max         174      87     30                 4224     1489     275
     Sum        1041     517    177                25341     8925    1647

     Using Slab Decomposition



     bravais-lattice index     =            1
     lattice parameter (alat)  =       5.2188  a.u.
     unit-cell volume          =     142.1412 (a.u.)^3
     number of atoms/cell      =            2
     number of atomic types    =            2
     number of electrons       =        32.00
     number of Kohn-Sham states=           32
     kinetic-energy cutoff     =      60.0000  Ry
     charge density cutoff     =     480.0000  Ry
     Exchange-correlation= SLA  PW   PSX  PSC
                           (   1   4  10   8   0   0   0)

     celldm(1)=   5.218832  celldm(2)=   0.000000  celldm(3)=   0.000000
     celldm(4)=   0.000000  celldm(5)=   0.000000  celldm(6)=   0.000000

     crystal axes: (cart. coord. in units of alat)
               a(1) = (   1.000000   0.000000   0.000000 )  
               a(2) = (   0.000000   1.000000   0.000000 )  
               a(3) = (   0.000000   0.000000   1.000000 )  

     reciprocal axes: (cart. coord. in units 2 pi/alat)
               b(1) = (  1.000000  0.000000  0.000000 )  
               b(2) = (  0.000000  1.000000  0.000000 )  
               b(3) = (  0.000000  0.000000  1.000000 )  


     PseudoPot. # 1 for Fe read from file:
     ./../../pseudos/Fe.pbesol-spn-kjpaw_psl.1.0.0.UPF
     MD5 check sum: e30d5f36a6f0cb983ee41abee56170da
     Pseudo is Projector augmented-wave + core cor, Zval = 16.0
     Generated using &quot;atomic&quot; code by A. Dal Corso  v.6.3
     Shape of augmentation charge: PSQ
     Using radial grid of 1191 points,  6 beta functions with: 
                l(1) =   0
                l(2) =   0
                l(3) =   1
                l(4) =   1
                l(5) =   2
                l(6) =   2
     Q(r) pseudized with 0 coefficients 


     PseudoPot. # 2 for Fe read from file:
     ./../../pseudos/Fe.pbesol-spn-kjpaw_psl.1.0.0.UPF
     MD5 check sum: e30d5f36a6f0cb983ee41abee56170da
     Pseudo is Projector augmented-wave + core cor, Zval = 16.0
     Generated using &quot;atomic&quot; code by A. Dal Corso  v.6.3
     Shape of augmentation charge: PSQ
     Using radial grid of 1191 points,  6 beta functions with: 
                l(1) =   0
                l(2) =   0
                l(3) =   1
                l(4) =   1
                l(5) =   2
                l(6) =   2
     Q(r) pseudized with 0 coefficients 


     atomic species   valence    mass     pseudopotential
     Fe1              16.00    55.84500     Fe( 1.00)
     Fe2              16.00    55.84500     Fe( 1.00)

     Starting magnetic structure 
     atomic species   magnetization
     Fe1             0.300
     Fe2             0.300

     48 Sym. Ops., with inversion, found



   Cartesian axes

     site n.     atom                  positions (alat units)
         1        Fe1    tau(   1) = (   0.0000000   0.0000000   0.0000000  )
         2        Fe1    tau(   2) = (   0.4999998   0.4999998   0.4999998  )

     number of k points=   101  Gaussian smearing, width (Ry)=  0.0200

     Number of k-points >= 100: set verbosity='high' to print them.

     Dense  grid:    25341 G-vectors     FFT dimensions: (  40,  40,  40)

     Smooth grid:     8925 G-vectors     FFT dimensions: (  25,  25,  25)

     Estimated max dynamical RAM per process >      17.87 MB

     Estimated total dynamical RAM >     107.24 MB

     Check: negative core charge=   -0.000003
     Generating pointlists ...
     new r_m :   0.3572 (alat units)  1.8644 (a.u.) for type    1
     new r_m :   0.4125 (alat units)  2.1528 (a.u.) for type    2

     The potential is recalculated from file :
     ./temp/fe.save/charge-density


     negative rho (up, down):  0.000E+00 1.337E-04
     Starting wfcs are   20 randomized atomic wfcs +   12 random wfcs
     Checking if some PAW data can be deallocated... 

     Band Structure Calculation
     Davidson diagonalization with overlap

     ethr =  3.13E-13,  avg # of iterations = 30.6

     total cpu time spent up to now is       40.8 secs

     End of band structure calculation

     Number of k-points >= 100: set verbosity='high' to print the bands.

     Writing all to output data dir ./temp/fe.save/ :
     XML data file, pseudopotentials, collected wavefunctions

     init_run     :      0.58s CPU      0.64s WALL (       1 calls)
     electrons    :     39.17s CPU     39.82s WALL (       1 calls)

     Called by init_run:
     wfcinit      :      0.00s CPU      0.00s WALL (       1 calls)
     potinit      :      0.19s CPU      0.23s WALL (       1 calls)
     hinit0       :      0.32s CPU      0.33s WALL (       1 calls)

     Called by electrons:
     c_bands      :     39.17s CPU     39.82s WALL (       1 calls)
     v_of_rho     :      0.01s CPU      0.01s WALL (       1 calls)
     newd         :      0.05s CPU      0.06s WALL (       1 calls)
     PAW_pot      :      0.14s CPU      0.19s WALL (       1 calls)

     Called by c_bands:
     init_us_2    :      0.03s CPU      0.03s WALL (     202 calls)
     cegterg      :     38.03s CPU     38.62s WALL (     382 calls)

     Called by *egterg:
     cdiaghg      :     10.43s CPU     10.49s WALL (    6389 calls)
     h_psi        :     10.85s CPU     11.27s WALL (    6771 calls)
     s_psi        :      1.66s CPU      1.68s WALL (    6771 calls)
     g_psi        :      0.07s CPU      0.07s WALL (    6187 calls)

     Called by h_psi:
     h_psi:calbec :      1.99s CPU      2.10s WALL (    6771 calls)
     vloc_psi     :      7.10s CPU      7.35s WALL (    6771 calls)
     add_vuspsi   :      1.65s CPU      1.71s WALL (    6771 calls)

     General routines
     calbec       :      1.98s CPU      2.09s WALL (    6771 calls)
     fft          :      0.18s CPU      0.18s WALL (      23 calls)
     ffts         :      0.03s CPU      0.03s WALL (       2 calls)
     fftw         :      5.79s CPU      5.99s WALL (  229372 calls)
     interpolate  :      0.03s CPU      0.03s WALL (       2 calls)
     davcio       :      0.03s CPU      0.03s WALL (     404 calls)

     Parallel routines

     PWSCF        :     40.19s CPU     41.01s WALL


   This run was terminated on:   7:31:14   1Jan2025            

=------------------------------------------------------------------------------=
   JOB DONE.
=------------------------------------------------------------------------------=
