
     Program BANDS v.7.3.1 starts on 12Dec2025 at 11:24: 9 

     This program is part of the open-source Quantum ESPRESSO suite
     for quantum simulation of materials; please cite
         "P. Giannozzi et al., J. Phys.:Condens. Matter 21 395502 (2009);
         "P. Giannozzi et al., J. Phys.:Condens. Matter 29 465901 (2017);
         "P. Giannozzi et al., J. Chem. Phys. 152 154105 (2020);
          URL http://www.quantum-espresso.org", 
     in publications or presentations arising from this work. More details at
     http://www.quantum-espresso.org/quote

     Parallel version (MPI), running on     6 processors

     MPI processes distributed on     1 nodes
     R & G space division:  proc/nbgrp/npool/nimage =       6
     8766 MiB available memory on the printing compute node when the environment starts


     Reading xml data from directory:

     ./temp/fe.save/
     file Fe.pbesol-spn-kjpaw_psl.1.0.0.UPF: wavefunction(s)  3P 3D renormalized
     file Fe.pbesol-spn-kjpaw_psl.1.0.0.UPF: wavefunction(s)  3P 3D renormalized

     IMPORTANT: XC functional enforced from input :
     Exchange-correlation= PBESOL
                           (   1   4  10   8   0   0   0)
     Any further DFT definition will be discarded
     Please, verify this is what you really want


     Parallelization info
     --------------------
     sticks:   dense  smooth     PW     G-vecs:    dense   smooth      PW
     Min         351     175     53                12240     4303     722
     Max         352     179     55                12242     4304     723
     Sum        2109    1057    325                73447    25821    4337

     Using Slab Decomposition


     negative rho (up, down):  0.000E+00 9.024E-05
     Reading collected, re-writing distributed wavefunctions
     high-symmetry point:  0.0000 0.0000 0.0000   x coordinate   0.0000
     high-symmetry point:  0.0000 0.0000 0.5000   x coordinate   0.5000
     high-symmetry point: -0.5000 0.0000 0.5000   x coordinate   1.0000
     high-symmetry point: -0.5000 0.0000 0.0000   x coordinate   1.5000
     high-symmetry point: -0.5000 0.5000 0.5000   x coordinate   2.2071
     high-symmetry point:  0.0000 0.0000 0.5000   x coordinate   2.9142

     Plottable bands (eV) written to file bands_pp.dat.gnu
     Bands written to file bands_pp.dat

 **************************************************************************

                    xk=(   0.00000,   0.00000,   0.00000  )

     point group O_h (m-3m) 
     there are 10 classes
     the character table:

       E     8C3   3C2   6C4   6C2'  i     8S6   3s_h  6S4   6s_d 
A_1g   1.00  1.00  1.00  1.00  1.00  1.00  1.00  1.00  1.00  1.00
A_2g   1.00  1.00  1.00 -1.00 -1.00  1.00  1.00  1.00 -1.00 -1.00
E_g    2.00 -1.00  2.00  0.00  0.00  2.00 -1.00  2.00  0.00  0.00
T_1g   3.00  0.00 -1.00  1.00 -1.00  3.00  0.00 -1.00  1.00 -1.00
T_2g   3.00  0.00 -1.00 -1.00  1.00  3.00  0.00 -1.00 -1.00  1.00
A_1u   1.00  1.00  1.00  1.00  1.00 -1.00 -1.00 -1.00 -1.00 -1.00
A_2u   1.00  1.00  1.00 -1.00 -1.00 -1.00 -1.00 -1.00  1.00  1.00
E_u    2.00 -1.00  2.00  0.00  0.00 -2.00  1.00 -2.00  0.00  0.00
T_1u   3.00  0.00 -1.00  1.00 -1.00 -3.00  0.00  1.00 -1.00  1.00
T_2u   3.00  0.00 -1.00 -1.00  1.00 -3.00  0.00  1.00  1.00 -1.00

     the symmetry operations in each class and the name of the first element:

     E        1
                                                                 
     8C3     17   19   20   18   24   21   22   23
                                                                 
     3C2      2    4    3
                                                                 
     6C4      7    8   15   16   12   11
                                                                 
     6C2'     5    6   14   13   10    9
                                                                 
     i       25
                                                                 
     8S6     41   43   44   42   48   45   46   47
                                                                 
     3s_h    26   28   27
                                                                 
     6S4     31   32   39   40   36   35
                                                                 
     6s_d    29   30   38   37   34   33
                                                                 

     Band symmetry, O_h (m-3m)  point group:

     e(  1 -  1) =    -68.63764  eV     1   --> A_1g G_1   G_1+
     e(  2 -  2) =    -68.46852  eV     1   --> A_1g G_1   G_1+
     e(  3 -  5) =    -34.87173  eV     3   --> T_1u G_15  G_4-
     e(  6 -  8) =    -34.52158  eV     3   --> T_1u G_15  G_4-
     e(  9 -  9) =     10.30452  eV     1   --> A_1g G_1   G_1+
     e( 10 - 11) =     14.03694  eV     2   --> E_g  G_12  G_3+
     e( 12 - 14) =     16.80222  eV     3   --> T_2g G_25' G_5+
     e( 15 - 16) =     18.15849  eV     2   --> E_g  G_12  G_3+
     e( 17 - 19) =     19.43930  eV     3   --> T_2g G_25' G_5+
     e( 20 - 22) =     29.26097  eV     3   --> T_1u G_15  G_4-
     e( 23 - 24) =     35.25109  eV     2   --> E_g  G_12  G_3+
     e( 25 - 25) =     40.82900  eV     1   --> A_1g G_1   G_1+
     e( 26 - 28) =     44.00080  eV     3   --> T_2u G_25  G_5-
     e( 29 - 30) =     49.76462  eV     2   --> E_g  G_12  G_3+
     e( 31 - 32) =     52.18116  eV     2   -->   ?

 **************************************************************************

 **************************************************************************

                    xk=(   0.00000,   0.00000,   0.02500  )

     point group C_4v (4mm) 
     there are  5 classes
     the character table:

       E     2C4   C2    2s_v  2s_d 
A_1    1.00  1.00  1.00  1.00  1.00
A_2    1.00  1.00  1.00 -1.00 -1.00
B_1    1.00 -1.00  1.00  1.00 -1.00
B_2    1.00 -1.00  1.00 -1.00  1.00
E      2.00  0.00 -2.00  0.00  0.00

     the symmetry operations in each class and the name of the first element:

     E        1
                                                                 
     2C4      3    4
                                                                 
     C2       2
                                                                 
     2s_v     5    6
                                                                 
     2s_d     7    8
                                                                 

     Band symmetry, C_4v (4mm)  point group:

     e(  1 -  1) =    -68.63734  eV     1   --> A_1  G_1 D_1   
     e(  2 -  2) =    -68.46874  eV     1   --> A_1  G_1 D_1   
     e(  3 -  3) =    -34.87168  eV     1   --> A_1  G_1 D_1   
     e(  4 -  5) =    -34.87116  eV     2   --> E    G_5 D_5   
     e(  6 -  6) =    -34.52262  eV     1   --> A_1  G_1 D_1   
     e(  7 -  8) =    -34.52209  eV     2   --> E    G_5 D_5   
     e(  9 -  9) =     10.31810  eV     1   --> A_1  G_1 D_1   
     e( 10 - 10) =     14.04292  eV     1   --> B_1  G_3 D_2   
     e( 11 - 11) =     14.04327  eV     1   --> A_1  G_1 D_1   
     e( 12 - 13) =     16.80200  eV     2   --> E    G_5 D_5   
     e( 14 - 14) =     16.80606  eV     1   --> B_2  G_4 D_2'  
     e( 15 - 15) =     18.15198  eV     1   --> B_1  G_3 D_2   
     e( 16 - 16) =     18.16106  eV     1   --> A_1  G_1 D_1   
     e( 17 - 18) =     19.42671  eV     2   --> E    G_5 D_5   
     e( 19 - 19) =     19.43501  eV     1   --> B_2  G_4 D_2'  
     e( 20 - 20) =     29.15991  eV     1   --> A_1  G_1 D_1   
     e( 21 - 22) =     29.28768  eV     2   --> E    G_5 D_5   
     e( 23 - 23) =     35.25434  eV     1   --> B_1  G_3 D_2   
     e( 24 - 24) =     35.32894  eV     1   --> A_1  G_1 D_1   
     e( 25 - 25) =     40.86998  eV     1   --> A_1  G_1 D_1   
     e( 26 - 26) =     43.91238  eV     1   --> B_1  G_3 D_2   
     e( 27 - 28) =     43.99573  eV     2   --> E    G_5 D_5   
     e( 29 - 29) =     49.63039  eV     1   --> A_1  G_1 D_1   
     e( 30 - 30) =     49.88447  eV     1   --> B_1  G_3 D_2   
     e( 31 - 32) =     51.88378  eV     2   --> E    G_5 D_5   

 **************************************************************************

 **************************************************************************

                    xk=(   0.00000,   0.00000,   0.05000  )

     Band symmetry, C_4v (4mm)  point group:

     e(  1 -  1) =    -68.63644  eV     1   --> A_1  G_1 D_1   
     e(  2 -  2) =    -68.46941  eV     1   --> A_1  G_1 D_1   
     e(  3 -  3) =    -34.87156  eV     1   --> A_1  G_1 D_1   
     e(  4 -  5) =    -34.86946  eV     2   --> E    G_5 D_5   
     e(  6 -  6) =    -34.52569  eV     1   --> A_1  G_1 D_1   
     e(  7 -  8) =    -34.52360  eV     2   --> E    G_5 D_5   
     e(  9 -  9) =     10.35875  eV     1   --> A_1  G_1 D_1   
     e( 10 - 10) =     14.06080  eV     1   --> B_1  G_3 D_2   
     e( 11 - 11) =     14.06208  eV     1   --> A_1  G_1 D_1   
     e( 12 - 13) =     16.80141  eV     2   --> E    G_5 D_5   
     e( 14 - 14) =     16.81756  eV     1   --> B_2  G_4 D_2'  
     e( 15 - 15) =     18.13246  eV     1   --> B_1  G_3 D_2   
     e( 16 - 16) =     18.16877  eV     1   --> A_1  G_1 D_1   
     e( 17 - 18) =     19.38940  eV     2   --> E    G_5 D_5   
     e( 19 - 19) =     19.42216  eV     1   --> B_2  G_4 D_2'  
     e( 20 - 20) =     28.87507  eV     1   --> A_1  G_1 D_1   
     e( 21 - 22) =     29.36727  eV     2   --> E    G_5 D_5   
     e( 23 - 23) =     35.26409  eV     1   --> B_1  G_3 D_2   
     e( 24 - 24) =     35.54162  eV     1   --> A_1  G_1 D_1   
     e( 25 - 25) =     40.99562  eV     1   --> A_1  G_1 D_1   
     e( 26 - 26) =     43.66695  eV     1   --> B_1  G_3 D_2   
     e( 27 - 28) =     43.97851  eV     2   --> E    G_5 D_5   
     e( 29 - 29) =     49.27231  eV     1   --> A_1  G_1 D_1   
     e( 30 - 30) =     50.22414  eV     1   --> B_1  G_3 D_2   
     e( 31 - 32) =     51.36841  eV     2   --> E    G_5 D_5   

 **************************************************************************

 **************************************************************************

                    xk=(   0.00000,   0.00000,   0.07500  )

     Band symmetry, C_4v (4mm)  point group:

     e(  1 -  1) =    -68.63494  eV     1   --> A_1  G_1 D_1   
     e(  2 -  2) =    -68.47051  eV     1   --> A_1  G_1 D_1   
     e(  3 -  3) =    -34.87125  eV     1   --> A_1  G_1 D_1   
     e(  4 -  5) =    -34.86663  eV     2   --> E    G_5 D_5   
     e(  6 -  6) =    -34.53080  eV     1   --> A_1  G_1 D_1   
     e(  7 -  8) =    -34.52611  eV     2   --> E    G_5 D_5   
     e(  9 -  9) =     10.42624  eV     1   --> A_1  G_1 D_1   
     e( 10 - 10) =     14.09052  eV     1   --> B_1  G_3 D_2   
     e( 11 - 11) =     14.09292  eV     1   --> A_1  G_1 D_1   
     e( 12 - 13) =     16.80060  eV     2   --> E    G_5 D_5   
     e( 14 - 14) =     16.83666  eV     1   --> B_2  G_4 D_2'  
     e( 15 - 15) =     18.10009  eV     1   --> B_1  G_3 D_2   
     e( 16 - 16) =     18.18147  eV     1   --> A_1  G_1 D_1   
     e( 17 - 18) =     19.32892  eV     2   --> E    G_5 D_5   
     e( 19 - 19) =     19.40086  eV     1   --> B_2  G_4 D_2'  
     e( 20 - 20) =     28.44890  eV     1   --> A_1  G_1 D_1   
     e( 21 - 22) =     29.49820  eV     2   --> E    G_5 D_5   
     e( 23 - 23) =     35.28048  eV     1   --> B_1  G_3 D_2   
     e( 24 - 24) =     35.84005  eV     1   --> A_1  G_1 D_1   
     e( 25 - 25) =     41.21332  eV     1   --> A_1  G_1 D_1   
     e( 26 - 26) =     43.30884  eV     1   --> B_1  G_3 D_2   
     e( 27 - 28) =     43.94318  eV     2   --> E    G_5 D_5   
     e( 29 - 29) =     48.77201  eV     1   --> A_1  G_1 D_1   
     e( 30 - 30) =     50.73916  eV     1   --> B_1  G_3 D_2   
     e( 31 - 32) =     50.85201  eV     2   --> E    G_5 D_5   

 **************************************************************************

 **************************************************************************

                    xk=(   0.00000,   0.00000,   0.10000  )

     Band symmetry, C_4v (4mm)  point group:

     e(  1 -  1) =    -68.63289  eV     1   --> A_1  G_1 D_1   
     e(  2 -  2) =    -68.47204  eV     1   --> A_1  G_1 D_1   
     e(  3 -  3) =    -34.87074  eV     1   --> A_1  G_1 D_1   
     e(  4 -  5) =    -34.86269  eV     2   --> E    G_5 D_5   
     e(  6 -  6) =    -34.53789  eV     1   --> A_1  G_1 D_1   
     e(  7 -  8) =    -34.52963  eV     2   --> E    G_5 D_5   
     e(  9 -  9) =     10.52018  eV     1   --> A_1  G_1 D_1   
     e( 10 - 10) =     14.13194  eV     1   --> B_1  G_3 D_2   
     e( 11 - 11) =     14.13498  eV     1   --> A_1  G_1 D_1   
     e( 12 - 13) =     16.79986  eV     2   --> E    G_5 D_5   
     e( 14 - 14) =     16.86326  eV     1   --> B_2  G_4 D_2'  
     e( 15 - 15) =     18.05498  eV     1   --> B_1  G_3 D_2   
     e( 16 - 16) =     18.19898  eV     1   --> A_1  G_1 D_1   
     e( 17 - 18) =     19.24749  eV     2   --> E    G_5 D_5   
     e( 19 - 19) =     19.37124  eV     1   --> B_2  G_4 D_2'  
     e( 20 - 20) =     27.92602  eV     1   --> A_1  G_1 D_1   
     e( 21 - 22) =     29.67811  eV     2   --> E    G_5 D_5   
     e( 23 - 23) =     35.30364  eV     1   --> B_1  G_3 D_2   
     e( 24 - 24) =     36.17128  eV     1   --> A_1  G_1 D_1   
     e( 25 - 25) =     41.53246  eV     1   --> A_1  G_1 D_1   
     e( 26 - 26) =     42.88228  eV     1   --> B_1  G_3 D_2   
     e( 27 - 28) =     43.88000  eV     2   --> E    G_5 D_5   
     e( 29 - 29) =     48.19091  eV     1   --> A_1  G_1 D_1   
     e( 30 - 31) =     50.38238  eV     2   --> E    G_5 D_5   
     e( 32 - 32) =     51.38503  eV     1   --> B_1  G_3 D_2   

 **************************************************************************

 **************************************************************************

                    xk=(   0.00000,   0.00000,   0.12500  )

     Band symmetry, C_4v (4mm)  point group:

     e(  1 -  1) =    -68.63026  eV     1   --> A_1  G_1 D_1   
     e(  2 -  2) =    -68.47400  eV     1   --> A_1  G_1 D_1   
     e(  3 -  3) =    -34.86999  eV     1   --> A_1  G_1 D_1   
     e(  4 -  5) =    -34.85767  eV     2   --> E    G_5 D_5   
     e(  6 -  6) =    -34.54679  eV     1   --> A_1  G_1 D_1   
     e(  7 -  8) =    -34.53410  eV     2   --> E    G_5 D_5   
     e(  9 -  9) =     10.63999  eV     1   --> A_1  G_1 D_1   
     e( 10 - 10) =     14.18486  eV     1   --> B_1  G_3 D_2   
     e( 11 - 11) =     14.18706  eV     1   --> A_1  G_1 D_1   
     e( 12 - 13) =     16.79958  eV     2   --> E    G_5 D_5   
     e( 14 - 14) =     16.89724  eV     1   --> B_2  G_4 D_2'  
     e( 15 - 15) =     17.99744  eV     1   --> B_1  G_3 D_2   
     e( 16 - 16) =     18.22128  eV     1   --> A_1  G_1 D_1   
     e( 17 - 18) =     19.14795  eV     2   --> E    G_5 D_5   
     e( 19 - 19) =     19.33353  eV     1   --> B_2  G_4 D_2'  
     e( 20 - 20) =     27.34198  eV     1   --> A_1  G_1 D_1   
     e( 21 - 22) =     29.90402  eV     2   --> E    G_5 D_5   
     e( 23 - 23) =     35.33381  eV     1   --> B_1  G_3 D_2   
     e( 24 - 24) =     36.49384  eV     1   --> A_1  G_1 D_1   
     e( 25 - 25) =     41.96049  eV     1   --> A_1  G_1 D_1   
     e( 26 - 26) =     42.42026  eV     1   --> B_1  G_3 D_2   
     e( 27 - 28) =     43.77623  eV     2   --> E    G_5 D_5   
     e( 29 - 29) =     47.56550  eV     1   --> A_1  G_1 D_1   
     e( 30 - 31) =     49.98296  eV     2   --> E    G_5 D_5   
     e( 32 - 32) =     52.12842  eV     1   --> B_1  G_3 D_2   

 **************************************************************************

 **************************************************************************

                    xk=(   0.00000,   0.00000,   0.15000  )

     Band symmetry, C_4v (4mm)  point group:

     e(  1 -  1) =    -68.62710  eV     1   --> A_1  G_1 D_1   
     e(  2 -  2) =    -68.47639  eV     1   --> A_1  G_1 D_1   
     e(  3 -  3) =    -34.86895  eV     1   --> A_1  G_1 D_1   
     e(  4 -  5) =    -34.85161  eV     2   --> E    G_5 D_5   
     e(  6 -  6) =    -34.55737  eV     1   --> A_1  G_1 D_1   
     e(  7 -  8) =    -34.53956  eV     2   --> E    G_5 D_5   
     e(  9 -  9) =     10.78492  eV     1   --> A_1  G_1 D_1   
     e( 10 - 10) =     14.24765  eV     1   --> A_1  G_1 D_1   
     e( 11 - 11) =     14.24902  eV     1   --> B_1  G_3 D_2   
     e( 12 - 13) =     16.80024  eV     2   --> E    G_5 D_5   
     e( 14 - 14) =     16.93838  eV     1   --> B_2  G_4 D_2'  
     e( 15 - 15) =     17.92777  eV     1   --> B_1  G_3 D_2   
     e( 16 - 16) =     18.24813  eV     1   --> A_1  G_1 D_1   
     e( 17 - 18) =     19.03341  eV     2   --> E    G_5 D_5   
     e( 19 - 19) =     19.28799  eV     1   --> B_2  G_4 D_2'  
     e( 20 - 20) =     26.72206  eV     1   --> A_1  G_1 D_1   
     e( 21 - 22) =     30.17257  eV     2   --> E    G_5 D_5   
     e( 23 - 23) =     35.37126  eV     1   --> B_1  G_3 D_2   
     e( 24 - 24) =     36.78291  eV     1   --> A_1  G_1 D_1   
     e( 25 - 25) =     41.94461  eV     1   --> B_1  G_3 D_2   
     e( 26 - 26) =     42.49893  eV     1   --> A_1  G_1 D_1   
     e( 27 - 28) =     43.61821  eV     2   --> E    G_5 D_5   
     e( 29 - 29) =     46.91733  eV     1   --> A_1  G_1 D_1   
     e( 30 - 31) =     49.67167  eV     2   --> E    G_5 D_5   
     e( 32 - 32) =     52.28320  eV     1   --> B_2  G_4 D_2'  

 **************************************************************************

 **************************************************************************

                    xk=(   0.00000,   0.00000,   0.17500  )

     Band symmetry, C_4v (4mm)  point group:

     e(  1 -  1) =    -68.62343  eV     1   --> A_1  G_1 D_1   
     e(  2 -  2) =    -68.47920  eV     1   --> A_1  G_1 D_1   
     e(  3 -  3) =    -34.86754  eV     1   --> A_1  G_1 D_1   
     e(  4 -  5) =    -34.84455  eV     2   --> E    G_5 D_5   
     e(  6 -  6) =    -34.56948  eV     1   --> A_1  G_1 D_1   
     e(  7 -  8) =    -34.54594  eV     2   --> E    G_5 D_5   
     e(  9 -  9) =     10.95403  eV     1   --> A_1  G_1 D_1   
     e( 10 - 10) =     14.31492  eV     1   --> A_1  G_1 D_1   
     e( 11 - 11) =     14.32412  eV     1   --> B_1  G_3 D_2   
     e( 12 - 13) =     16.80246  eV     2   --> E    G_5 D_5   
     e( 14 - 14) =     16.98648  eV     1   --> B_2  G_4 D_2'  
     e( 15 - 15) =     17.84643  eV     1   --> B_1  G_3 D_2   
     e( 16 - 16) =     18.27934  eV     1   --> A_1  G_1 D_1   
     e( 17 - 18) =     18.90709  eV     2   --> E    G_5 D_5   
     e( 19 - 19) =     19.23493  eV     1   --> B_2  G_4 D_2'  
     e( 20 - 20) =     26.08373  eV     1   --> A_1  G_1 D_1   
     e( 21 - 22) =     30.48027  eV     2   --> E    G_5 D_5   
     e( 23 - 23) =     35.41636  eV     1   --> B_1  G_3 D_2   
     e( 24 - 24) =     37.02928  eV     1   --> A_1  G_1 D_1   
     e( 25 - 25) =     41.46922  eV     1   --> B_1  G_3 D_2   
     e( 26 - 26) =     43.14194  eV     1   --> A_1  G_1 D_1   
     e( 27 - 28) =     43.39466  eV     2   --> E    G_5 D_5   
     e( 29 - 29) =     46.26020  eV     1   --> A_1  G_1 D_1   
     e( 30 - 31) =     49.46174  eV     2   --> E    G_5 D_5   
     e( 32 - 32) =     52.32153  eV     1   --> B_2  G_4 D_2'  

 **************************************************************************

 **************************************************************************

                    xk=(   0.00000,   0.00000,   0.20000  )

     Band symmetry, C_4v (4mm)  point group:

     e(  1 -  1) =    -68.61928  eV     1   --> A_1  G_1 D_1   
     e(  2 -  2) =    -68.48241  eV     1   --> A_1  G_1 D_1   
     e(  3 -  3) =    -34.86564  eV     1   --> A_1  G_1 D_1   
     e(  4 -  5) =    -34.83655  eV     2   --> E    G_5 D_5   
     e(  6 -  6) =    -34.58295  eV     1   --> A_1  G_1 D_1   
     e(  7 -  8) =    -34.55319  eV     2   --> E    G_5 D_5   
     e(  9 -  9) =     11.14614  eV     1   --> A_1  G_1 D_1   
     e( 10 - 10) =     14.38660  eV     1   --> A_1  G_1 D_1   
     e( 11 - 11) =     14.40979  eV     1   --> B_1  G_3 D_2   
     e( 12 - 13) =     16.80685  eV     2   --> E    G_5 D_5   
     e( 14 - 14) =     17.04133  eV     1   --> B_2  G_4 D_2'  
     e( 15 - 15) =     17.75390  eV     1   --> B_1  G_3 D_2   
     e( 16 - 16) =     18.31480  eV     1   --> A_1  G_1 D_1   
     e( 17 - 18) =     18.77219  eV     2   --> E    G_5 D_5   
     e( 19 - 19) =     19.17472  eV     1   --> B_2  G_4 D_2'  
     e( 20 - 20) =     25.43929  eV     1   --> A_1  G_1 D_1   
     e( 21 - 22) =     30.82365  eV     2   --> E    G_5 D_5   
     e( 23 - 23) =     35.46952  eV     1   --> B_1  G_3 D_2   
     e( 24 - 24) =     37.23504  eV     1   --> A_1  G_1 D_1   
     e( 25 - 25) =     41.00288  eV     1   --> B_1  G_3 D_2   
     e( 26 - 27) =     43.10014  eV     2   --> E    G_5 D_5   
     e( 28 - 28) =     43.87799  eV     1   --> A_1  G_1 D_1   
     e( 29 - 29) =     45.60375  eV     1   --> A_1  G_1 D_1   
     e( 30 - 31) =     49.35942  eV     2   --> E    G_5 D_5   
     e( 32 - 32) =     52.36672  eV     1   --> B_2  G_4 D_2'  

 **************************************************************************

 **************************************************************************

                    xk=(   0.00000,   0.00000,   0.22500  )

     Band symmetry, C_4v (4mm)  point group:

     e(  1 -  1) =    -68.61468  eV     1   --> A_1  G_1 D_1   
     e(  2 -  2) =    -68.48602  eV     1   --> A_1  G_1 D_1   
     e(  3 -  3) =    -34.86315  eV     1   --> A_1  G_1 D_1   
     e(  4 -  5) =    -34.82764  eV     2   --> E    G_5 D_5   
     e(  6 -  6) =    -34.59759  eV     1   --> A_1  G_1 D_1   
     e(  7 -  8) =    -34.56131  eV     2   --> E    G_5 D_5   
     e(  9 -  9) =     11.35977  eV     1   --> A_1  G_1 D_1   
     e( 10 - 10) =     14.46006  eV     1   --> A_1  G_1 D_1   
     e( 11 - 11) =     14.50561  eV     1   --> B_1  G_3 D_2   
     e( 12 - 13) =     16.81407  eV     2   --> E    G_5 D_5   
     e( 14 - 14) =     17.10260  eV     1   --> B_2  G_4 D_2'  
     e( 15 - 15) =     17.65075  eV     1   --> B_1  G_3 D_2   
     e( 16 - 16) =     18.35456  eV     1   --> A_1  G_1 D_1   
     e( 17 - 18) =     18.63166  eV     2   --> E    G_5 D_5   
     e( 19 - 19) =     19.10780  eV     1   --> B_2  G_4 D_2'  
     e( 20 - 20) =     24.79778  eV     1   --> A_1  G_1 D_1   
     e( 21 - 22) =     31.19940  eV     2   --> E    G_5 D_5   
     e( 23 - 23) =     35.53122  eV     1   --> B_1  G_3 D_2   
     e( 24 - 24) =     37.40825  eV     1   --> A_1  G_1 D_1   
     e( 25 - 25) =     40.55116  eV     1   --> B_1  G_3 D_2   
     e( 26 - 27) =     42.73664  eV     2   --> E    G_5 D_5   
     e( 28 - 28) =     44.69328  eV     1   --> A_1  G_1 D_1   
     e( 29 - 29) =     44.95526  eV     1   --> A_1  G_1 D_1   
     e( 30 - 31) =     49.36294  eV     2   --> E    G_5 D_5   
     e( 32 - 32) =     52.41918  eV     1   --> B_2  G_4 D_2'  

 **************************************************************************

 **************************************************************************

                    xk=(   0.00000,   0.00000,   0.25000  )

     Band symmetry, C_4v (4mm)  point group:

     e(  1 -  1) =    -68.60967  eV     1   --> A_1  G_1 D_1   
     e(  2 -  2) =    -68.49001  eV     1   --> A_1  G_1 D_1   
     e(  3 -  3) =    -34.86001  eV     1   --> A_1  G_1 D_1   
     e(  4 -  5) =    -34.81789  eV     2   --> E    G_5 D_5   
     e(  6 -  6) =    -34.61320  eV     1   --> A_1  G_1 D_1   
     e(  7 -  8) =    -34.57023  eV     2   --> E    G_5 D_5   
     e(  9 -  9) =     11.59318  eV     1   --> A_1  G_1 D_1   
     e( 10 - 10) =     14.53217  eV     1   --> A_1  G_1 D_1   
     e( 11 - 11) =     14.61108  eV     1   --> B_1  G_3 D_2   
     e( 12 - 13) =     16.82482  eV     2   --> E    G_5 D_5   
     e( 14 - 14) =     17.16999  eV     1   --> B_2  G_4 D_2'  
     e( 15 - 15) =     17.53764  eV     1   --> B_1  G_3 D_2   
     e( 16 - 16) =     18.39883  eV     1   --> A_1  G_1 D_1   
     e( 17 - 18) =     18.48818  eV     2   --> E    G_5 D_5   
     e( 19 - 19) =     19.03467  eV     1   --> B_2  G_4 D_2'  
     e( 20 - 20) =     24.16623  eV     1   --> A_1  G_1 D_1   
     e( 21 - 22) =     31.60440  eV     2   --> E    G_5 D_5   
     e( 23 - 23) =     35.60199  eV     1   --> B_1  G_3 D_2   
     e( 24 - 24) =     37.55896  eV     1   --> A_1  G_1 D_1   
     e( 25 - 25) =     40.11759  eV     1   --> B_1  G_3 D_2   
     e( 26 - 27) =     42.31224  eV     2   --> E    G_5 D_5   
     e( 28 - 28) =     44.32053  eV     1   --> A_1  G_1 D_1   
     e( 29 - 29) =     45.57443  eV     1   --> A_1  G_1 D_1   
     e( 30 - 31) =     49.46402  eV     2   --> E    G_5 D_5   
     e( 32 - 32) =     52.47933  eV     1   --> B_2  G_4 D_2'  

 **************************************************************************

 **************************************************************************

                    xk=(   0.00000,   0.00000,   0.27500  )

     Band symmetry, C_4v (4mm)  point group:

     e(  1 -  1) =    -68.60428  eV     1   --> A_1  G_1 D_1   
     e(  2 -  2) =    -68.49439  eV     1   --> A_1  G_1 D_1   
     e(  3 -  3) =    -34.85615  eV     1   --> A_1  G_1 D_1   
     e(  4 -  5) =    -34.80740  eV     2   --> E    G_5 D_5   
     e(  6 -  6) =    -34.62953  eV     1   --> A_1  G_1 D_1   
     e(  7 -  8) =    -34.57991  eV     2   --> E    G_5 D_5   
     e(  9 -  9) =     11.84420  eV     1   --> A_1  G_1 D_1   
     e( 10 - 10) =     14.59938  eV     1   --> A_1  G_1 D_1   
     e( 11 - 11) =     14.72566  eV     1   --> B_1  G_3 D_2   
     e( 12 - 13) =     16.83984  eV     2   --> E    G_5 D_5   
     e( 14 - 14) =     17.24312  eV     1   --> B_2  G_4 D_2'  
     e( 15 - 15) =     17.41530  eV     1   --> B_1  G_3 D_2   
     e( 16 - 17) =     18.34410  eV     2   --> E    G_5 D_5   
     e( 18 - 18) =     18.44815  eV     1   --> A_1  G_1 D_1   
     e( 19 - 19) =     18.95574  eV     1   --> B_2  G_4 D_2'  
     e( 20 - 20) =     23.55046  eV     1   --> A_1  G_1 D_1   
     e( 21 - 22) =     32.03579  eV     2   --> E    G_5 D_5   
     e( 23 - 23) =     35.68245  eV     1   --> B_1  G_3 D_2   
     e( 24 - 24) =     37.69702  eV     1   --> A_1  G_1 D_1   
     e( 25 - 25) =     39.70438  eV     1   --> B_1  G_3 D_2   
     e( 26 - 27) =     41.83810  eV     2   --> E    G_5 D_5   
     e( 28 - 28) =     43.70438  eV     1   --> A_1  G_1 D_1   
     e( 29 - 29) =     46.50980  eV     1   --> A_1  G_1 D_1   
     e( 30 - 31) =     49.65105  eV     2   --> E    G_5 D_5   
     e( 32 - 32) =     52.54764  eV     1   --> B_2  G_4 D_2'  

 **************************************************************************

 **************************************************************************

                    xk=(   0.00000,   0.00000,   0.30000  )

     Band symmetry, C_4v (4mm)  point group:

     e(  1 -  1) =    -68.59858  eV     1   --> A_1  G_1 D_1   
     e(  2 -  2) =    -68.49911  eV     1   --> A_1  G_1 D_1   
     e(  3 -  3) =    -34.85145  eV     1   --> A_1  G_1 D_1   
     e(  4 -  5) =    -34.79621  eV     2   --> E    G_5 D_5   
     e(  6 -  6) =    -34.64641  eV     1   --> A_1  G_1 D_1   
     e(  7 -  8) =    -34.59031  eV     2   --> E    G_5 D_5   
     e(  9 -  9) =     12.11022  eV     1   --> A_1  G_1 D_1   
     e( 10 - 10) =     14.65771  eV     1   --> A_1  G_1 D_1   
     e( 11 - 11) =     14.84875  eV     1   --> B_1  G_3 D_2   
     e( 12 - 13) =     16.85980  eV     2   --> E    G_5 D_5   
     e( 14 - 14) =     17.28452  eV     1   --> B_1  G_3 D_2   
     e( 15 - 15) =     17.32160  eV     1   --> B_2  G_4 D_2'  
     e( 16 - 17) =     18.20149  eV     2   --> E    G_5 D_5   
     e( 18 - 18) =     18.50340  eV     1   --> A_1  G_1 D_1   
     e( 19 - 19) =     18.87160  eV     1   --> B_2  G_4 D_2'  
     e( 20 - 20) =     22.95572  eV     1   --> A_1  G_1 D_1   
     e( 21 - 22) =     32.49097  eV     2   --> E    G_5 D_5   
     e( 23 - 23) =     35.77324  eV     1   --> B_1  G_3 D_2   
     e( 24 - 24) =     37.83123  eV     1   --> A_1  G_1 D_1   
     e( 25 - 25) =     39.31281  eV     1   --> B_1  G_3 D_2   
     e( 26 - 27) =     41.32569  eV     2   --> E    G_5 D_5   
     e( 28 - 28) =     43.11085  eV     1   --> A_1  G_1 D_1   
     e( 29 - 29) =     47.48986  eV     1   --> A_1  G_1 D_1   
     e( 30 - 31) =     49.91197  eV     2   --> E    G_5 D_5   
     e( 32 - 32) =     52.62463  eV     1   --> B_2  G_4 D_2'  

 **************************************************************************

 **************************************************************************

                    xk=(   0.00000,   0.00000,   0.32500  )

     Band symmetry, C_4v (4mm)  point group:

     e(  1 -  1) =    -68.59260  eV     1   --> A_1  G_1 D_1   
     e(  2 -  2) =    -68.50417  eV     1   --> A_1  G_1 D_1   
     e(  3 -  3) =    -34.84580  eV     1   --> A_1  G_1 D_1   
     e(  4 -  5) =    -34.78441  eV     2   --> E    G_5 D_5   
     e(  6 -  6) =    -34.66364  eV     1   --> A_1  G_1 D_1   
     e(  7 -  8) =    -34.60138  eV     2   --> E    G_5 D_5   
     e(  9 -  9) =     12.38805  eV     1   --> A_1  G_1 D_1   
     e( 10 - 10) =     14.70266  eV     1   --> A_1  G_1 D_1   
     e( 11 - 11) =     14.97969  eV     1   --> B_1  G_3 D_2   
     e( 12 - 13) =     16.88540  eV     2   --> E    G_5 D_5   
     e( 14 - 14) =     17.14616  eV     1   --> B_1  G_3 D_2   
     e( 15 - 15) =     17.40498  eV     1   --> B_2  G_4 D_2'  
     e( 16 - 17) =     18.06214  eV     2   --> E    G_5 D_5   
     e( 18 - 18) =     18.56603  eV     1   --> A_1  G_1 D_1   
     e( 19 - 19) =     18.78282  eV     1   --> B_2  G_4 D_2'  
     e( 20 - 20) =     22.38695  eV     1   --> A_1  G_1 D_1   
     e( 21 - 22) =     32.96754  eV     2   --> E    G_5 D_5   
     e( 23 - 23) =     35.87509  eV     1   --> B_1  G_3 D_2   
     e( 24 - 24) =     37.96919  eV     1   --> A_1  G_1 D_1   
     e( 25 - 25) =     38.94353  eV     1   --> B_1  G_3 D_2   
     e( 26 - 27) =     40.78515  eV     2   --> E    G_5 D_5   
     e( 28 - 28) =     42.54337  eV     1   --> A_1  G_1 D_1   
     e( 29 - 29) =     48.50681  eV     1   --> A_1  G_1 D_1   
     e( 30 - 31) =     50.23591  eV     2   --> E    G_5 D_5   
     e( 32 - 32) =     52.71081  eV     1   --> B_2  G_4 D_2'  

 **************************************************************************

 **************************************************************************

                    xk=(   0.00000,   0.00000,   0.35000  )

     Band symmetry, C_4v (4mm)  point group:

     e(  1 -  1) =    -68.58637  eV     1   --> A_1  G_1 D_1   
     e(  2 -  2) =    -68.50953  eV     1   --> A_1  G_1 D_1   
     e(  3 -  3) =    -34.83918  eV     1   --> A_1  G_1 D_1   
     e(  4 -  5) =    -34.77208  eV     2   --> E    G_5 D_5   
     e(  6 -  6) =    -34.68094  eV     1   --> A_1  G_1 D_1   
     e(  7 -  8) =    -34.61302  eV     2   --> E    G_5 D_5   
     e(  9 -  9) =     12.67386  eV     1   --> A_1  G_1 D_1   
     e( 10 - 10) =     14.72928  eV     1   --> A_1  G_1 D_1   
     e( 11 - 11) =     15.11774  eV     1   --> B_1  G_3 D_2   
     e( 12 - 13) =     16.91733  eV     2   --> E    G_5 D_5   
     e( 14 - 14) =     17.00117  eV     1   --> B_1  G_3 D_2   
     e( 15 - 15) =     17.49283  eV     1   --> B_2  G_4 D_2'  
     e( 16 - 17) =     17.92746  eV     2   --> E    G_5 D_5   
     e( 18 - 18) =     18.63826  eV     1   --> A_1  G_1 D_1   
     e( 19 - 19) =     18.69000  eV     1   --> B_2  G_4 D_2'  
     e( 20 - 20) =     21.84905  eV     1   --> A_1  G_1 D_1   
     e( 21 - 22) =     33.46334  eV     2   --> E    G_5 D_5   
     e( 23 - 23) =     35.98875  eV     1   --> B_1  G_3 D_2   
     e( 24 - 24) =     38.11732  eV     1   --> A_1  G_1 D_1   
     e( 25 - 25) =     38.59676  eV     1   --> B_1  G_3 D_2   
     e( 26 - 27) =     40.22486  eV     2   --> E    G_5 D_5   
     e( 28 - 28) =     42.00483  eV     1   --> A_1  G_1 D_1   
     e( 29 - 29) =     49.55411  eV     1   --> A_1  G_1 D_1   
     e( 30 - 31) =     50.61372  eV     2   --> E    G_5 D_5   
     e( 32 - 32) =     52.80674  eV     1   --> B_2  G_4 D_2'  

 **************************************************************************

 **************************************************************************

                    xk=(   0.00000,   0.00000,   0.37500  )

     Band symmetry, C_4v (4mm)  point group:

     e(  1 -  1) =    -68.57996  eV     1   --> A_1  G_1 D_1   
     e(  2 -  2) =    -68.51519  eV     1   --> A_1  G_1 D_1   
     e(  3 -  3) =    -34.83151  eV     1   --> A_1  G_1 D_1   
     e(  4 -  5) =    -34.75929  eV     2   --> E    G_5 D_5   
     e(  6 -  6) =    -34.69816  eV     1   --> A_1  G_1 D_1   
     e(  7 -  8) =    -34.62521  eV     2   --> E    G_5 D_5   
     e(  9 -  9) =     12.96297  eV     1   --> A_1  G_1 D_1   
     e( 10 - 10) =     14.73233  eV     1   --> A_1  G_1 D_1   
     e( 11 - 11) =     15.26214  eV     1   --> B_1  G_3 D_2   
     e( 12 - 12) =     16.85049  eV     1   --> B_1  G_3 D_2   
     e( 13 - 14) =     16.95615  eV     2   --> E    G_5 D_5   
     e( 15 - 15) =     17.58464  eV     1   --> B_2  G_4 D_2'  
     e( 16 - 17) =     17.79871  eV     2   --> E    G_5 D_5   
     e( 18 - 18) =     18.59376  eV     1   --> B_2  G_4 D_2'  
     e( 19 - 19) =     18.72309  eV     1   --> A_1  G_1 D_1   
     e( 20 - 20) =     21.34687  eV     1   --> A_1  G_1 D_1   
     e( 21 - 22) =     33.97635  eV     2   --> E    G_5 D_5   
     e( 23 - 23) =     36.11505  eV     1   --> B_1  G_3 D_2   
     e( 24 - 24) =     38.27236  eV     1   --> B_1  G_3 D_2   
     e( 25 - 25) =     38.28112  eV     1   --> A_1  G_1 D_1   
     e( 26 - 27) =     39.65143  eV     2   --> E    G_5 D_5   
     e( 28 - 28) =     41.49759  eV     1   --> A_1  G_1 D_1   
     e( 29 - 29) =     50.62590  eV     1   --> A_1  G_1 D_1   
     e( 30 - 31) =     51.03798  eV     2   --> E    G_5 D_5   
     e( 32 - 32) =     52.91298  eV     1   --> B_2  G_4 D_2'  

 **************************************************************************

 **************************************************************************

                    xk=(   0.00000,   0.00000,   0.40000  )

     Band symmetry, C_4v (4mm)  point group:

     e(  1 -  1) =    -68.57339  eV     1   --> A_1  G_1 D_1   
     e(  2 -  2) =    -68.52110  eV     1   --> A_1  G_1 D_1   
     e(  3 -  3) =    -34.82273  eV     1   --> A_1  G_1 D_1   
     e(  4 -  5) =    -34.74614  eV     2   --> E    G_5 D_5   
     e(  6 -  6) =    -34.71505  eV     1   --> A_1  G_1 D_1   
     e(  7 -  8) =    -34.63783  eV     2   --> E    G_5 D_5   
     e(  9 -  9) =     13.24989  eV     1   --> A_1  G_1 D_1   
     e( 10 - 10) =     14.70660  eV     1   --> A_1  G_1 D_1   
     e( 11 - 11) =     15.41204  eV     1   --> B_1  G_3 D_2   
     e( 12 - 12) =     16.69519  eV     1   --> B_1  G_3 D_2   
     e( 13 - 14) =     17.00246  eV     2   --> E    G_5 D_5   
     e( 15 - 16) =     17.67682  eV     2   --> E    G_5 D_5   
     e( 17 - 17) =     17.67989  eV     1   --> B_2  G_4 D_2'  
     e( 18 - 18) =     18.49472  eV     1   --> B_2  G_4 D_2'  
     e( 19 - 19) =     18.82459  eV     1   --> A_1  G_1 D_1   
     e( 20 - 20) =     20.88521  eV     1   --> A_1  G_1 D_1   
     e( 21 - 22) =     34.50472  eV     2   --> E    G_5 D_5   
     e( 23 - 23) =     36.25485  eV     1   --> B_1  G_3 D_2   
     e( 24 - 24) =     37.96998  eV     1   --> B_1  G_3 D_2   
     e( 25 - 25) =     38.46534  eV     1   --> A_1  G_1 D_1   
     e( 26 - 27) =     39.07009  eV     2   --> E    G_5 D_5   
     e( 28 - 28) =     41.02350  eV     1   --> A_1  G_1 D_1   
     e( 29 - 30) =     51.50272  eV     2   --> E    G_5 D_5   
     e( 31 - 31) =     51.71635  eV     1   --> A_1  G_1 D_1   
     e( 32 - 32) =     53.03008  eV     1   --> B_2  G_4 D_2'  

 **************************************************************************

 **************************************************************************

                    xk=(   0.00000,   0.00000,   0.42500  )

     Band symmetry, C_4v (4mm)  point group:

     e(  1 -  1) =    -68.56673  eV     1   --> A_1  G_1 D_1   
     e(  2 -  2) =    -68.52722  eV     1   --> A_1  G_1 D_1   
     e(  3 -  3) =    -34.81280  eV     1   --> A_1  G_1 D_1   
     e(  4 -  5) =    -34.73266  eV     2   --> E    G_5 D_5   
     e(  6 -  6) =    -34.73150  eV     1   --> A_1  G_1 D_1   
     e(  7 -  8) =    -34.65086  eV     2   --> E    G_5 D_5   
     e(  9 -  9) =     13.52820  eV     1   --> A_1  G_1 D_1   
     e( 10 - 10) =     14.64723  eV     1   --> A_1  G_1 D_1   
     e( 11 - 11) =     15.56662  eV     1   --> B_1  G_3 D_2   
     e( 12 - 12) =     16.53626  eV     1   --> B_1  G_3 D_2   
     e( 13 - 14) =     17.05667  eV     2   --> E    G_5 D_5   
     e( 15 - 16) =     17.56261  eV     2   --> E    G_5 D_5   
     e( 17 - 17) =     17.77800  eV     1   --> B_2  G_4 D_2'  
     e( 18 - 18) =     18.39358  eV     1   --> B_2  G_4 D_2'  
     e( 19 - 19) =     18.94778  eV     1   --> A_1  G_1 D_1   
     e( 20 - 20) =     20.46830  eV     1   --> A_1  G_1 D_1   
     e( 21 - 22) =     35.04669  eV     2   --> E    G_5 D_5   
     e( 23 - 23) =     36.40907  eV     1   --> B_1  G_3 D_2   
     e( 24 - 24) =     37.68904  eV     1   --> B_1  G_3 D_2   
     e( 25 - 26) =     38.48492  eV     2   --> E    G_5 D_5   
     e( 27 - 27) =     38.67399  eV     1   --> A_1  G_1 D_1   
     e( 28 - 28) =     40.58388  eV     1   --> A_1  G_1 D_1   
     e( 29 - 30) =     52.00307  eV     2   --> E    G_5 D_5   
     e( 31 - 31) =     52.81878  eV     1   --> A_1  G_1 D_1   
     e( 32 - 32) =     53.15859  eV     1   --> B_2  G_4 D_2'  

 **************************************************************************

 **************************************************************************

                    xk=(   0.00000,   0.00000,   0.45000  )

     Band symmetry, C_4v (4mm)  point group:

     e(  1 -  1) =    -68.56002  eV     1   --> A_1  G_1 D_1   
     e(  2 -  2) =    -68.53354  eV     1   --> A_1  G_1 D_1   
     e(  3 -  3) =    -34.80177  eV     1   --> A_1  G_1 D_1   
     e(  4 -  4) =    -34.74727  eV     1   --> A_1  G_1 D_1   
     e(  5 -  6) =    -34.71901  eV     2   --> E    G_5 D_5   
     e(  7 -  8) =    -34.66421  eV     2   --> E    G_5 D_5   
     e(  9 -  9) =     13.79084  eV     1   --> A_1  G_1 D_1   
     e( 10 - 10) =     14.55053  eV     1   --> A_1  G_1 D_1   
     e( 11 - 11) =     15.72485  eV     1   --> B_1  G_3 D_2   
     e( 12 - 12) =     16.37474  eV     1   --> B_1  G_3 D_2   
     e( 13 - 14) =     17.11923  eV     2   --> E    G_5 D_5   
     e( 15 - 16) =     17.45655  eV     2   --> E    G_5 D_5   
     e( 17 - 17) =     17.87842  eV     1   --> B_2  G_4 D_2'  
     e( 18 - 18) =     18.29092  eV     1   --> B_2  G_4 D_2'  
     e( 19 - 19) =     19.09864  eV     1   --> A_1  G_1 D_1   
     e( 20 - 20) =     20.09935  eV     1   --> A_1  G_1 D_1   
     e( 21 - 22) =     35.60050  eV     2   --> E    G_5 D_5   
     e( 23 - 23) =     36.57860  eV     1   --> B_1  G_3 D_2   
     e( 24 - 24) =     37.42882  eV     1   --> B_1  G_3 D_2   
     e( 25 - 26) =     37.89926  eV     2   --> E    G_5 D_5   
     e( 27 - 27) =     38.91040  eV     1   --> A_1  G_1 D_1   
     e( 28 - 28) =     40.17953  eV     1   --> A_1  G_1 D_1   
     e( 29 - 30) =     52.53505  eV     2   --> E    G_5 D_5   
     e( 31 - 31) =     53.29906  eV     1   --> B_2  G_4 D_2'  
     e( 32 - 32) =     53.92414  eV     1   --> A_1  G_1 D_1   

 **************************************************************************

 **************************************************************************

                    xk=(   0.00000,   0.00000,   0.47500  )

     Band symmetry, C_4v (4mm)  point group:

     e(  1 -  1) =    -68.55330  eV     1   --> A_1  G_1 D_1   
     e(  2 -  2) =    -68.54002  eV     1   --> A_1  G_1 D_1   
     e(  3 -  3) =    -34.78961  eV     1   --> A_1  G_1 D_1   
     e(  4 -  4) =    -34.76230  eV     1   --> A_1  G_1 D_1   
     e(  5 -  6) =    -34.70526  eV     2   --> E    G_5 D_5   
     e(  7 -  8) =    -34.67778  eV     2   --> E    G_5 D_5   
     e(  9 -  9) =     14.03046  eV     1   --> A_1  G_1 D_1   
     e( 10 - 10) =     14.41467  eV     1   --> A_1  G_1 D_1   
     e( 11 - 11) =     15.88581  eV     1   --> B_1  G_3 D_2   
     e( 12 - 12) =     16.21180  eV     1   --> B_1  G_3 D_2   
     e( 13 - 14) =     17.19036  eV     2   --> E    G_5 D_5   
     e( 15 - 16) =     17.35904  eV     2   --> E    G_5 D_5   
     e( 17 - 17) =     17.98053  eV     1   --> B_2  G_4 D_2'  
     e( 18 - 18) =     18.18743  eV     1   --> B_2  G_4 D_2'  
     e( 19 - 19) =     19.28364  eV     1   --> A_1  G_1 D_1   
     e( 20 - 20) =     19.77986  eV     1   --> A_1  G_1 D_1   
     e( 21 - 22) =     36.16448  eV     2   --> E    G_5 D_5   
     e( 23 - 23) =     36.76439  eV     1   --> B_1  G_3 D_2   
     e( 24 - 24) =     37.18857  eV     1   --> B_1  G_3 D_2   
     e( 25 - 26) =     37.31579  eV     2   --> E    G_5 D_5   
     e( 27 - 27) =     39.17732  eV     1   --> A_1  G_1 D_1   
     e( 28 - 28) =     39.81064  eV     1   --> A_1  G_1 D_1   
     e( 29 - 30) =     53.09534  eV     2   --> E    G_5 D_5   
     e( 31 - 31) =     53.45196  eV     1   --> B_2  G_4 D_2'  
     e( 32 - 32) =     53.79687  eV     1   --> B_2  G_4 D_2'  

 **************************************************************************

 **************************************************************************

                    xk=(   0.00000,   0.00000,   0.50000  )

     point group D_4h(4/mmm)
     there are 10 classes
     the character table:

       E     2C4   C2    2C2'  2C2'' i     2S4   s_h   2s_v  2s_d 
A_1g   1.00  1.00  1.00  1.00  1.00  1.00  1.00  1.00  1.00  1.00
A_2g   1.00  1.00  1.00 -1.00 -1.00  1.00  1.00  1.00 -1.00 -1.00
B_1g   1.00 -1.00  1.00  1.00 -1.00  1.00 -1.00  1.00  1.00 -1.00
B_2g   1.00 -1.00  1.00 -1.00  1.00  1.00 -1.00  1.00 -1.00  1.00
E_g    2.00  0.00 -2.00  0.00  0.00  2.00  0.00 -2.00  0.00  0.00
A_1u   1.00  1.00  1.00  1.00  1.00 -1.00 -1.00 -1.00 -1.00 -1.00
A_2u   1.00  1.00  1.00 -1.00 -1.00 -1.00 -1.00 -1.00  1.00  1.00
B_1u   1.00 -1.00  1.00  1.00 -1.00 -1.00  1.00 -1.00 -1.00  1.00
B_2u   1.00 -1.00  1.00 -1.00  1.00 -1.00  1.00 -1.00  1.00 -1.00
E_u    2.00  0.00 -2.00  0.00  0.00 -2.00  0.00  2.00  0.00  0.00

     the symmetry operations in each class and the name of the first element:

     E        1
                                                                 
     2C4      7    8
                                                                 
     C2       2
                                                                 
     2C2'     3    4
                                                                 
     2C2''    5    6
                                                                 
     i        9
                                                                 
     2S4     15   16
                                                                 
     s_h     10
                                                                 
     2s_v    11   12
                                                                 
     2s_d    13   14
                                                                 

     Band symmetry, D_4h(4/mmm) point group:

     e(  1 -  1) =    -68.54670  eV     1   --> A_1g X_1  M_1  
     e(  2 -  2) =    -68.54654  eV     1   --> A_2u X_4' M_4' 
     e(  3 -  3) =    -34.77653  eV     1   --> A_2u X_4' M_4' 
     e(  4 -  4) =    -34.77637  eV     1   --> A_1g X_1  M_1  
     e(  5 -  6) =    -34.69157  eV     2   --> E_u  X_5' M_5' 
     e(  7 -  8) =    -34.69141  eV     2   --> E_g  X_5  M_5  
     e(  9 - 10) =     14.24021  eV     2   --> A_1g X_1  M_1  
     e(  9 - 10) =     14.24021  eV     2   --> A_2u X_4' M_4' 
     e( 11 - 11) =     16.04841  eV     1   --> B_1g X_2  M_2  
     e( 12 - 12) =     16.04852  eV     1   --> B_2u X_3' M_3' 
     e( 13 - 14) =     17.27022  eV     2   --> E_g  X_5  M_5  
     e( 15 - 16) =     17.27034  eV     2   --> E_u  X_5' M_5' 
     e( 17 - 17) =     18.08368  eV     1   --> B_2g X_3  M_3  
     e( 18 - 18) =     18.08382  eV     1   --> B_1u X_2' M_2' 
     e( 19 - 19) =     19.50895  eV     1   --> A_1g X_1  M_1  
     e( 20 - 20) =     19.50906  eV     1   --> A_2u X_4' M_4' 
     e( 21 - 24) =     36.73685  eV     4   --> E_g  X_5  M_5  
     e( 21 - 24) =     36.73685  eV     4   --> E_u  X_5' M_5' 
     e( 25 - 26) =     36.96737  eV     2   --> B_1g X_2  M_2  
     e( 25 - 26) =     36.96737  eV     2   --> B_2u X_3' M_3' 
     e( 27 - 28) =     39.47689  eV     2   --> A_1g X_1  M_1  
     e( 27 - 28) =     39.47689  eV     2   --> A_2u X_4' M_4' 
     e( 29 - 30) =     53.61775  eV     2   --> B_2g X_3  M_3  
     e( 29 - 30) =     53.61775  eV     2   --> B_1u X_2' M_2' 
     e( 31 - 32) =     53.68113  eV     2   --> E_u  X_5' M_5' 

 **************************************************************************

 **************************************************************************

                    xk=(  -0.03333,   0.00000,   0.50000  )

     point group C_2v (mm2) 
     there are  4 classes
     the character table:

       E     C2    s_v   s_v' 
A_1    1.00  1.00  1.00  1.00
A_2    1.00  1.00 -1.00 -1.00
B_1    1.00 -1.00  1.00 -1.00
B_2    1.00 -1.00 -1.00  1.00

     the symmetry operations in each class and the name of the first element:

     E        1
                                                                 
     C2       2
                                                                 
     s_v      4
                                                                 
     s_v'     3
                                                                 

     Band symmetry, C_2v (mm2)  point group:

     e(  1 -  1) =    -68.54662  eV     1   --> A_1  D_1  S_1  
     e(  2 -  2) =    -68.54646  eV     1   --> B_1  D_3  S_3  
     e(  3 -  3) =    -34.78363  eV     1   --> B_1  D_3  S_3  
     e(  4 -  4) =    -34.78350  eV     1   --> A_1  D_1  S_1  
     e(  5 -  5) =    -34.69149  eV     1   --> B_2  D_4  S_4  
     e(  6 -  6) =    -34.69133  eV     1   --> A_2  D_2  S_2  
     e(  7 -  7) =    -34.68515  eV     1   --> A_1  D_1  S_1  
     e(  8 -  8) =    -34.68501  eV     1   --> B_1  D_3  S_3  
     e(  9 - 10) =     14.24850  eV     2   --> A_1  D_1  S_1  
     e(  9 - 10) =     14.24850  eV     2   --> B_1  D_3  S_3  
     e( 11 - 11) =     16.03830  eV     1   --> A_1  D_1  S_1  
     e( 12 - 12) =     16.03841  eV     1   --> B_1  D_3  S_3  
     e( 13 - 13) =     17.21822  eV     1   --> A_2  D_2  S_2  
     e( 14 - 14) =     17.21832  eV     1   --> B_2  D_4  S_4  
     e( 15 - 15) =     17.29277  eV     1   --> B_1  D_3  S_3  
     e( 16 - 16) =     17.29288  eV     1   --> A_1  D_1  S_1  
     e( 17 - 17) =     18.13573  eV     1   --> B_2  D_4  S_4  
     e( 18 - 18) =     18.13584  eV     1   --> A_2  D_2  S_2  
     e( 19 - 19) =     19.51528  eV     1   --> A_1  D_1  S_1  
     e( 20 - 20) =     19.51539  eV     1   --> B_1  D_3  S_3  
     e( 21 - 22) =     36.01750  eV     2   --> A_1  D_1  S_1  
     e( 21 - 22) =     36.01750  eV     2   --> B_1  D_3  S_3  
     e( 23 - 24) =     36.75711  eV     2   --> A_2  D_2  S_2  
     e( 23 - 24) =     36.75711  eV     2   --> B_2  D_4  S_4  
     e( 25 - 26) =     37.46840  eV     2   --> A_1  D_1  S_1  
     e( 25 - 26) =     37.46840  eV     2   --> B_1  D_3  S_3  
     e( 27 - 28) =     39.71724  eV     2   --> A_1  D_1  S_1  
     e( 27 - 28) =     39.71724  eV     2   --> B_1  D_3  S_3  
     e( 29 - 30) =     52.65945  eV     2   --> A_2  D_2  S_2  
     e( 29 - 30) =     52.65945  eV     2   --> B_2  D_4  S_4  
     e( 31 - 32) =     53.50114  eV     2   --> A_1  D_1  S_1  
     e( 31 - 32) =     53.50114  eV     2   --> B_1  D_3  S_3  

 **************************************************************************

 **************************************************************************

                    xk=(  -0.06667,   0.00000,   0.50000  )

     Band symmetry, C_2v (mm2)  point group:

     e(  1 -  1) =    -68.54641  eV     1   --> A_1  D_1  S_1  
     e(  2 -  2) =    -68.54625  eV     1   --> B_1  D_3  S_3  
     e(  3 -  4) =    -34.80071  eV     2   --> A_1  D_1  S_1  
     e(  3 -  4) =    -34.80071  eV     2   --> B_1  D_3  S_3  
     e(  5 -  5) =    -34.69128  eV     1   --> B_2  D_4  S_4  
     e(  6 -  6) =    -34.69112  eV     1   --> A_2  D_2  S_2  
     e(  7 -  8) =    -34.67021  eV     2   --> A_1  D_1  S_1  
     e(  7 -  8) =    -34.67021  eV     2   --> B_1  D_3  S_3  
     e(  9 - 10) =     14.27096  eV     2   --> A_1  D_1  S_1  
     e(  9 - 10) =     14.27096  eV     2   --> B_1  D_3  S_3  
     e( 11 - 11) =     16.01528  eV     1   --> A_1  D_1  S_1  
     e( 12 - 12) =     16.01538  eV     1   --> B_1  D_3  S_3  
     e( 13 - 14) =     17.09091  eV     2   --> A_2  D_2  S_2  
     e( 13 - 14) =     17.09091  eV     2   --> B_2  D_4  S_4  
     e( 15 - 15) =     17.35506  eV     1   --> B_1  D_3  S_3  
     e( 16 - 16) =     17.35516  eV     1   --> A_1  D_1  S_1  
     e( 17 - 18) =     18.26305  eV     2   --> A_2  D_2  S_2  
     e( 17 - 18) =     18.26305  eV     2   --> B_2  D_4  S_4  
     e( 19 - 19) =     19.53396  eV     1   --> A_1  D_1  S_1  
     e( 20 - 20) =     19.53406  eV     1   --> B_1  D_3  S_3  
     e( 21 - 22) =     35.10681  eV     2   --> A_1  D_1  S_1  
     e( 21 - 22) =     35.10681  eV     2   --> B_1  D_3  S_3  
     e( 23 - 24) =     36.81772  eV     2   --> A_2  D_2  S_2  
     e( 23 - 24) =     36.81772  eV     2   --> B_2  D_4  S_4  
     e( 25 - 26) =     37.77905  eV     2   --> A_1  D_1  S_1  
     e( 25 - 26) =     37.77905  eV     2   --> B_1  D_3  S_3  
     e( 27 - 28) =     40.38310  eV     2   --> A_1  D_1  S_1  
     e( 27 - 28) =     40.38310  eV     2   --> B_1  D_3  S_3  
     e( 29 - 30) =     51.70075  eV     2   --> A_2  D_2  S_2  
     e( 29 - 30) =     51.70075  eV     2   --> B_2  D_4  S_4  
     e( 31 - 32) =     53.04850  eV     2   --> A_1  D_1  S_1  
     e( 31 - 32) =     53.04850  eV     2   --> B_1  D_3  S_3  

 **************************************************************************

 **************************************************************************

                    xk=(  -0.10000,   0.00000,   0.50000  )

     Band symmetry, C_2v (mm2)  point group:

     e(  1 -  1) =    -68.54605  eV     1   --> A_1  D_1  S_1  
     e(  2 -  2) =    -68.54589  eV     1   --> B_1  D_3  S_3  
     e(  3 -  4) =    -34.82221  eV     2   --> A_1  D_1  S_1  
     e(  3 -  4) =    -34.82221  eV     2   --> B_1  D_3  S_3  
     e(  5 -  5) =    -34.69092  eV     1   --> B_2  D_4  S_4  
     e(  6 -  6) =    -34.69076  eV     1   --> A_2  D_2  S_2  
     e(  7 -  8) =    -34.65215  eV     2   --> A_1  D_1  S_1  
     e(  7 -  8) =    -34.65215  eV     2   --> B_1  D_3  S_3  
     e(  9 - 10) =     14.30050  eV     2   --> A_1  D_1  S_1  
     e(  9 - 10) =     14.30050  eV     2   --> B_1  D_3  S_3  
     e( 11 - 12) =     15.99769  eV     2   --> A_1  D_1  S_1  
     e( 11 - 12) =     15.99769  eV     2   --> B_1  D_3  S_3  
     e( 13 - 14) =     16.92964  eV     2   --> A_2  D_2  S_2  
     e( 13 - 14) =     16.92964  eV     2   --> B_2  D_4  S_4  
     e( 15 - 16) =     17.44487  eV     2   --> A_1  D_1  S_1  
     e( 15 - 16) =     17.44487  eV     2   --> B_1  D_3  S_3  
     e( 17 - 18) =     18.42435  eV     2   --> A_2  D_2  S_2  
     e( 17 - 18) =     18.42435  eV     2   --> B_2  D_4  S_4  
     e( 19 - 19) =     19.56417  eV     1   --> A_1  D_1  S_1  
     e( 20 - 20) =     19.56428  eV     1   --> B_1  D_3  S_3  
     e( 21 - 22) =     34.17185  eV     2   --> A_1  D_1  S_1  
     e( 21 - 22) =     34.17185  eV     2   --> B_1  D_3  S_3  
     e( 23 - 24) =     36.91821  eV     2   --> A_2  D_2  S_2  
     e( 23 - 24) =     36.91821  eV     2   --> B_2  D_4  S_4  
     e( 25 - 26) =     37.90090  eV     2   --> A_1  D_1  S_1  
     e( 25 - 26) =     37.90090  eV     2   --> B_1  D_3  S_3  
     e( 27 - 28) =     41.30528  eV     2   --> A_1  D_1  S_1  
     e( 27 - 28) =     41.30528  eV     2   --> B_1  D_3  S_3  
     e( 29 - 30) =     50.77283  eV     2   --> A_2  D_2  S_2  
     e( 29 - 30) =     50.77283  eV     2   --> B_2  D_4  S_4  
     e( 31 - 32) =     52.46045  eV     2   --> A_1  D_1  S_1  
     e( 31 - 32) =     52.46045  eV     2   --> B_1  D_3  S_3  

 **************************************************************************

 **************************************************************************

                    xk=(  -0.13333,   0.00000,   0.50000  )

     Band symmetry, C_2v (mm2)  point group:

     e(  1 -  1) =    -68.54557  eV     1   --> A_1  D_1  S_1  
     e(  2 -  2) =    -68.54541  eV     1   --> B_1  D_3  S_3  
     e(  3 -  4) =    -34.84543  eV     2   --> A_1  D_1  S_1  
     e(  3 -  4) =    -34.84543  eV     2   --> B_1  D_3  S_3  
     e(  5 -  5) =    -34.69043  eV     1   --> B_2  D_4  S_4  
     e(  6 -  6) =    -34.69028  eV     1   --> A_2  D_2  S_2  
     e(  7 -  8) =    -34.63354  eV     2   --> A_1  D_1  S_1  
     e(  7 -  8) =    -34.63354  eV     2   --> B_1  D_3  S_3  
     e(  9 - 10) =     14.32626  eV     2   --> A_1  D_1  S_1  
     e(  9 - 10) =     14.32626  eV     2   --> B_1  D_3  S_3  
     e( 11 - 12) =     16.00759  eV     2   --> A_1  D_1  S_1  
     e( 11 - 12) =     16.00759  eV     2   --> B_1  D_3  S_3  
     e( 13 - 14) =     16.75724  eV     2   --> A_2  D_2  S_2  
     e( 13 - 14) =     16.75724  eV     2   --> B_2  D_4  S_4  
     e( 15 - 16) =     17.54932  eV     2   --> A_1  D_1  S_1  
     e( 15 - 16) =     17.54932  eV     2   --> B_1  D_3  S_3  
     e( 17 - 18) =     18.59677  eV     2   --> A_2  D_2  S_2  
     e( 17 - 18) =     18.59677  eV     2   --> B_2  D_4  S_4  
     e( 19 - 20) =     19.60431  eV     2   --> A_1  D_1  S_1  
     e( 19 - 20) =     19.60431  eV     2   --> B_1  D_3  S_3  
     e( 21 - 22) =     33.24486  eV     2   --> A_1  D_1  S_1  
     e( 21 - 22) =     33.24486  eV     2   --> B_1  D_3  S_3  
     e( 23 - 24) =     37.05779  eV     2   --> A_2  D_2  S_2  
     e( 23 - 24) =     37.05779  eV     2   --> B_2  D_4  S_4  
     e( 25 - 26) =     37.93707  eV     2   --> A_1  D_1  S_1  
     e( 25 - 26) =     37.93707  eV     2   --> B_1  D_3  S_3  
     e( 27 - 28) =     42.34702  eV     2   --> A_1  D_1  S_1  
     e( 27 - 28) =     42.34702  eV     2   --> B_1  D_3  S_3  
     e( 29 - 30) =     49.87630  eV     2   --> A_2  D_2  S_2  
     e( 29 - 30) =     49.87630  eV     2   --> B_2  D_4  S_4  
     e( 31 - 32) =     51.82604  eV     2   --> A_1  D_1  S_1  
     e( 31 - 32) =     51.82604  eV     2   --> B_1  D_3  S_3  

 **************************************************************************

 **************************************************************************

                    xk=(  -0.16667,   0.00000,   0.50000  )

     Band symmetry, C_2v (mm2)  point group:

     e(  1 -  1) =    -68.54499  eV     1   --> A_1  D_1  S_1  
     e(  2 -  2) =    -68.54483  eV     1   --> B_1  D_3  S_3  
     e(  3 -  4) =    -34.86905  eV     2   --> A_1  D_1  S_1  
     e(  3 -  4) =    -34.86905  eV     2   --> B_1  D_3  S_3  
     e(  5 -  5) =    -34.68984  eV     1   --> B_2  D_4  S_4  
     e(  6 -  6) =    -34.68968  eV     1   --> A_2  D_2  S_2  
     e(  7 -  8) =    -34.61550  eV     2   --> A_1  D_1  S_1  
     e(  7 -  8) =    -34.61550  eV     2   --> B_1  D_3  S_3  
     e(  9 - 10) =     14.33672  eV     2   --> A_1  D_1  S_1  
     e(  9 - 10) =     14.33672  eV     2   --> B_1  D_3  S_3  
     e( 11 - 12) =     16.06463  eV     2   --> A_1  D_1  S_1  
     e( 11 - 12) =     16.06463  eV     2   --> B_1  D_3  S_3  
     e( 13 - 14) =     16.58481  eV     2   --> A_2  D_2  S_2  
     e( 13 - 14) =     16.58481  eV     2   --> B_2  D_4  S_4  
     e( 15 - 16) =     17.65811  eV     2   --> A_1  D_1  S_1  
     e( 15 - 16) =     17.65811  eV     2   --> B_1  D_3  S_3  
     e( 17 - 18) =     18.76921  eV     2   --> A_2  D_2  S_2  
     e( 17 - 18) =     18.76921  eV     2   --> B_2  D_4  S_4  
     e( 19 - 20) =     19.65183  eV     2   --> A_1  D_1  S_1  
     e( 19 - 20) =     19.65183  eV     2   --> B_1  D_3  S_3  
     e( 21 - 22) =     32.34183  eV     2   --> A_1  D_1  S_1  
     e( 21 - 22) =     32.34183  eV     2   --> B_1  D_3  S_3  
     e( 23 - 24) =     37.23529  eV     2   --> A_2  D_2  S_2  
     e( 23 - 24) =     37.23529  eV     2   --> B_2  D_4  S_4  
     e( 25 - 26) =     37.93329  eV     2   --> A_1  D_1  S_1  
     e( 25 - 26) =     37.93329  eV     2   --> B_1  D_3  S_3  
     e( 27 - 28) =     43.44338  eV     2   --> A_1  D_1  S_1  
     e( 27 - 28) =     43.44338  eV     2   --> B_1  D_3  S_3  
     e( 29 - 30) =     49.01184  eV     2   --> A_2  D_2  S_2  
     e( 29 - 30) =     49.01184  eV     2   --> B_2  D_4  S_4  
     e( 31 - 32) =     51.19799  eV     2   --> A_1  D_1  S_1  
     e( 31 - 32) =     51.19799  eV     2   --> B_1  D_3  S_3  

 **************************************************************************

 **************************************************************************

                    xk=(  -0.20000,   0.00000,   0.50000  )

     Band symmetry, C_2v (mm2)  point group:

     e(  1 -  1) =    -68.54434  eV     1   --> A_1  D_1  S_1  
     e(  2 -  2) =    -68.54417  eV     1   --> B_1  D_3  S_3  
     e(  3 -  4) =    -34.89229  eV     2   --> A_1  D_1  S_1  
     e(  3 -  4) =    -34.89229  eV     2   --> B_1  D_3  S_3  
     e(  5 -  5) =    -34.68918  eV     1   --> B_2  D_4  S_4  
     e(  6 -  6) =    -34.68902  eV     1   --> A_2  D_2  S_2  
     e(  7 -  8) =    -34.59854  eV     2   --> A_1  D_1  S_1  
     e(  7 -  8) =    -34.59854  eV     2   --> B_1  D_3  S_3  
     e(  9 - 10) =     14.32459  eV     2   --> A_1  D_1  S_1  
     e(  9 - 10) =     14.32459  eV     2   --> B_1  D_3  S_3  
     e( 11 - 12) =     16.18087  eV     2   --> A_1  D_1  S_1  
     e( 11 - 12) =     16.18087  eV     2   --> B_1  D_3  S_3  
     e( 13 - 14) =     16.41846  eV     2   --> A_2  D_2  S_2  
     e( 13 - 14) =     16.41846  eV     2   --> B_2  D_4  S_4  
     e( 15 - 16) =     17.76402  eV     2   --> A_1  D_1  S_1  
     e( 15 - 16) =     17.76402  eV     2   --> B_1  D_3  S_3  
     e( 17 - 18) =     18.93551  eV     2   --> A_2  D_2  S_2  
     e( 17 - 18) =     18.93551  eV     2   --> B_2  D_4  S_4  
     e( 19 - 20) =     19.70301  eV     2   --> A_1  D_1  S_1  
     e( 19 - 20) =     19.70301  eV     2   --> B_1  D_3  S_3  
     e( 21 - 22) =     31.47321  eV     2   --> A_1  D_1  S_1  
     e( 21 - 22) =     31.47321  eV     2   --> B_1  D_3  S_3  
     e( 23 - 24) =     37.44907  eV     2   --> A_2  D_2  S_2  
     e( 23 - 24) =     37.44907  eV     2   --> B_2  D_4  S_4  
     e( 25 - 26) =     37.90768  eV     2   --> A_1  D_1  S_1  
     e( 25 - 26) =     37.90768  eV     2   --> B_1  D_3  S_3  
     e( 27 - 28) =     44.55816  eV     2   --> A_1  D_1  S_1  
     e( 27 - 28) =     44.55816  eV     2   --> B_1  D_3  S_3  
     e( 29 - 30) =     48.18041  eV     2   --> A_2  D_2  S_2  
     e( 29 - 30) =     48.18041  eV     2   --> B_2  D_4  S_4  
     e( 31 - 32) =     50.61394  eV     2   --> A_1  D_1  S_1  
     e( 31 - 32) =     50.61394  eV     2   --> B_1  D_3  S_3  

 **************************************************************************

 **************************************************************************

                    xk=(  -0.23333,   0.00000,   0.50000  )

     Band symmetry, C_2v (mm2)  point group:

     e(  1 -  1) =    -68.54364  eV     1   --> A_1  D_1  S_1  
     e(  2 -  2) =    -68.54348  eV     1   --> B_1  D_3  S_3  
     e(  3 -  4) =    -34.91461  eV     2   --> A_1  D_1  S_1  
     e(  3 -  4) =    -34.91461  eV     2   --> B_1  D_3  S_3  
     e(  5 -  5) =    -34.68849  eV     1   --> B_2  D_4  S_4  
     e(  6 -  6) =    -34.68834  eV     1   --> A_2  D_2  S_2  
     e(  7 -  8) =    -34.58299  eV     2   --> A_1  D_1  S_1  
     e(  7 -  8) =    -34.58299  eV     2   --> B_1  D_3  S_3  
     e(  9 - 10) =     14.28993  eV     2   --> A_1  D_1  S_1  
     e(  9 - 10) =     14.28993  eV     2   --> B_1  D_3  S_3  
     e( 11 - 12) =     16.26211  eV     2   --> A_2  D_2  S_2  
     e( 11 - 12) =     16.26211  eV     2   --> B_2  D_4  S_4  
     e( 13 - 14) =     16.35785  eV     2   --> A_1  D_1  S_1  
     e( 13 - 14) =     16.35785  eV     2   --> B_1  D_3  S_3  
     e( 15 - 16) =     17.86237  eV     2   --> A_1  D_1  S_1  
     e( 15 - 16) =     17.86237  eV     2   --> B_1  D_3  S_3  
     e( 17 - 18) =     19.09171  eV     2   --> A_2  D_2  S_2  
     e( 17 - 18) =     19.09171  eV     2   --> B_2  D_4  S_4  
     e( 19 - 20) =     19.75282  eV     2   --> A_1  D_1  S_1  
     e( 19 - 20) =     19.75282  eV     2   --> B_1  D_3  S_3  
     e( 21 - 22) =     30.64783  eV     2   --> A_1  D_1  S_1  
     e( 21 - 22) =     30.64783  eV     2   --> B_1  D_3  S_3  
     e( 23 - 24) =     37.69692  eV     2   --> A_2  D_2  S_2  
     e( 23 - 24) =     37.69692  eV     2   --> B_2  D_4  S_4  
     e( 25 - 26) =     37.86856  eV     2   --> A_1  D_1  S_1  
     e( 25 - 26) =     37.86856  eV     2   --> B_1  D_3  S_3  
     e( 27 - 28) =     45.65408  eV     2   --> A_1  D_1  S_1  
     e( 27 - 28) =     45.65408  eV     2   --> B_1  D_3  S_3  
     e( 29 - 30) =     47.38338  eV     2   --> A_2  D_2  S_2  
     e( 29 - 30) =     47.38338  eV     2   --> B_2  D_4  S_4  
     e( 31 - 32) =     50.11362  eV     2   --> A_1  D_1  S_1  
     e( 31 - 32) =     50.11362  eV     2   --> B_1  D_3  S_3  

 **************************************************************************

 **************************************************************************

                    xk=(  -0.26667,   0.00000,   0.50000  )

     Band symmetry, C_2v (mm2)  point group:

     e(  1 -  1) =    -68.54292  eV     1   --> A_1  D_1  S_1  
     e(  2 -  2) =    -68.54276  eV     1   --> B_1  D_3  S_3  
     e(  3 -  4) =    -34.93548  eV     2   --> A_1  D_1  S_1  
     e(  3 -  4) =    -34.93548  eV     2   --> B_1  D_3  S_3  
     e(  5 -  5) =    -34.68777  eV     1   --> B_2  D_4  S_4  
     e(  6 -  6) =    -34.68761  eV     1   --> A_2  D_2  S_2  
     e(  7 -  8) =    -34.56900  eV     2   --> A_1  D_1  S_1  
     e(  7 -  8) =    -34.56900  eV     2   --> B_1  D_3  S_3  
     e(  9 - 10) =     14.23877  eV     2   --> A_1  D_1  S_1  
     e(  9 - 10) =     14.23877  eV     2   --> B_1  D_3  S_3  
     e( 11 - 12) =     16.11868  eV     2   --> A_2  D_2  S_2  
     e( 11 - 12) =     16.11868  eV     2   --> B_2  D_4  S_4  
     e( 13 - 14) =     16.58875  eV     2   --> A_1  D_1  S_1  
     e( 13 - 14) =     16.58875  eV     2   --> B_1  D_3  S_3  
     e( 15 - 16) =     17.95042  eV     2   --> A_1  D_1  S_1  
     e( 15 - 16) =     17.95042  eV     2   --> B_1  D_3  S_3  
     e( 17 - 18) =     19.23496  eV     2   --> A_2  D_2  S_2  
     e( 17 - 18) =     19.23496  eV     2   --> B_2  D_4  S_4  
     e( 19 - 20) =     19.79508  eV     2   --> A_1  D_1  S_1  
     e( 19 - 20) =     19.79508  eV     2   --> B_1  D_3  S_3  
     e( 21 - 22) =     29.87464  eV     2   --> A_1  D_1  S_1  
     e( 21 - 22) =     29.87464  eV     2   --> B_1  D_3  S_3  
     e( 23 - 24) =     37.82094  eV     2   --> A_1  D_1  S_1  
     e( 23 - 24) =     37.82094  eV     2   --> B_1  D_3  S_3  
     e( 25 - 26) =     37.97585  eV     2   --> A_2  D_2  S_2  
     e( 25 - 26) =     37.97585  eV     2   --> B_2  D_4  S_4  
     e( 27 - 28) =     46.62291  eV     2   --> A_2  D_2  S_2  
     e( 27 - 28) =     46.62291  eV     2   --> B_2  D_4  S_4  
     e( 29 - 30) =     46.65828  eV     2   --> A_1  D_1  S_1  
     e( 29 - 30) =     46.65828  eV     2   --> B_1  D_3  S_3  
     e( 31 - 32) =     49.76934  eV     2   --> A_1  D_1  S_1  
     e( 31 - 32) =     49.76934  eV     2   --> B_1  D_3  S_3  

 **************************************************************************

 **************************************************************************

                    xk=(  -0.30000,   0.00000,   0.50000  )

     Band symmetry, C_2v (mm2)  point group:

     e(  1 -  1) =    -68.54221  eV     1   --> A_1  D_1  S_1  
     e(  2 -  2) =    -68.54205  eV     1   --> B_1  D_3  S_3  
     e(  3 -  4) =    -34.95450  eV     2   --> A_1  D_1  S_1  
     e(  3 -  4) =    -34.95450  eV     2   --> B_1  D_3  S_3  
     e(  5 -  5) =    -34.68703  eV     1   --> B_2  D_4  S_4  
     e(  6 -  6) =    -34.68688  eV     1   --> A_2  D_2  S_2  
     e(  7 -  8) =    -34.55669  eV     2   --> A_1  D_1  S_1  
     e(  7 -  8) =    -34.55669  eV     2   --> B_1  D_3  S_3  
     e(  9 - 10) =     14.17912  eV     2   --> A_1  D_1  S_1  
     e(  9 - 10) =     14.17912  eV     2   --> B_1  D_3  S_3  
     e( 11 - 12) =     15.99040  eV     2   --> A_2  D_2  S_2  
     e( 11 - 12) =     15.99040  eV     2   --> B_2  D_4  S_4  
     e( 13 - 14) =     16.86210  eV     2   --> A_1  D_1  S_1  
     e( 13 - 14) =     16.86210  eV     2   --> B_1  D_3  S_3  
     e( 15 - 16) =     18.02684  eV     2   --> A_1  D_1  S_1  
     e( 15 - 16) =     18.02684  eV     2   --> B_1  D_3  S_3  
     e( 17 - 18) =     19.36306  eV     2   --> A_2  D_2  S_2  
     e( 17 - 18) =     19.36306  eV     2   --> B_2  D_4  S_4  
     e( 19 - 20) =     19.82255  eV     2   --> A_1  D_1  S_1  
     e( 19 - 20) =     19.82255  eV     2   --> B_1  D_3  S_3  
     e( 21 - 22) =     29.16364  eV     2   --> A_1  D_1  S_1  
     e( 21 - 22) =     29.16364  eV     2   --> B_1  D_3  S_3  
     e( 23 - 24) =     37.76873  eV     2   --> A_1  D_1  S_1  
     e( 23 - 24) =     37.76873  eV     2   --> B_1  D_3  S_3  
     e( 25 - 26) =     38.28159  eV     2   --> A_2  D_2  S_2  
     e( 25 - 26) =     38.28159  eV     2   --> B_2  D_4  S_4  
     e( 27 - 28) =     45.90233  eV     2   --> A_2  D_2  S_2  
     e( 27 - 28) =     45.90233  eV     2   --> B_2  D_4  S_4  
     e( 29 - 30) =     47.38919  eV     2   --> A_1  D_1  S_1  
     e( 29 - 30) =     47.38919  eV     2   --> B_1  D_3  S_3  
     e( 31 - 32) =     49.75705  eV     2   --> A_1  D_1  S_1  
     e( 31 - 32) =     49.75705  eV     2   --> B_1  D_3  S_3  

 **************************************************************************

 **************************************************************************

                    xk=(  -0.33333,   0.00000,   0.50000  )

     Band symmetry, C_2v (mm2)  point group:

     e(  1 -  1) =    -68.54156  eV     1   --> A_1  D_1  S_1  
     e(  2 -  2) =    -68.54140  eV     1   --> B_1  D_3  S_3  
     e(  3 -  4) =    -34.97129  eV     2   --> A_1  D_1  S_1  
     e(  3 -  4) =    -34.97129  eV     2   --> B_1  D_3  S_3  
     e(  5 -  5) =    -34.68637  eV     1   --> B_2  D_4  S_4  
     e(  6 -  6) =    -34.68621  eV     1   --> A_2  D_2  S_2  
     e(  7 -  8) =    -34.54617  eV     2   --> A_1  D_1  S_1  
     e(  7 -  8) =    -34.54617  eV     2   --> B_1  D_3  S_3  
     e(  9 - 10) =     14.11835  eV     2   --> A_1  D_1  S_1  
     e(  9 - 10) =     14.11835  eV     2   --> B_1  D_3  S_3  
     e( 11 - 12) =     15.87902  eV     2   --> A_2  D_2  S_2  
     e( 11 - 12) =     15.87902  eV     2   --> B_2  D_4  S_4  
     e( 13 - 14) =     17.16438  eV     2   --> A_1  D_1  S_1  
     e( 13 - 14) =     17.16438  eV     2   --> B_1  D_3  S_3  
     e( 15 - 16) =     18.09114  eV     2   --> A_1  D_1  S_1  
     e( 15 - 16) =     18.09114  eV     2   --> B_1  D_3  S_3  
     e( 17 - 18) =     19.47418  eV     2   --> A_2  D_2  S_2  
     e( 17 - 18) =     19.47418  eV     2   --> B_2  D_4  S_4  
     e( 19 - 20) =     19.82777  eV     2   --> A_1  D_1  S_1  
     e( 19 - 20) =     19.82777  eV     2   --> B_1  D_3  S_3  
     e( 21 - 22) =     28.52633  eV     2   --> A_1  D_1  S_1  
     e( 21 - 22) =     28.52633  eV     2   --> B_1  D_3  S_3  
     e( 23 - 24) =     37.71561  eV     2   --> A_1  D_1  S_1  
     e( 23 - 24) =     37.71561  eV     2   --> B_1  D_3  S_3  
     e( 25 - 26) =     38.60781  eV     2   --> A_2  D_2  S_2  
     e( 25 - 26) =     38.60781  eV     2   --> B_2  D_4  S_4  
     e( 27 - 28) =     45.22701  eV     2   --> A_2  D_2  S_2  
     e( 27 - 28) =     45.22701  eV     2   --> B_2  D_4  S_4  
     e( 29 - 30) =     47.63703  eV     2   --> A_1  D_1  S_1  
     e( 29 - 30) =     47.63703  eV     2   --> B_1  D_3  S_3  
     e( 31 - 32) =     50.27364  eV     2   --> A_1  D_1  S_1  
     e( 31 - 32) =     50.27364  eV     2   --> B_1  D_3  S_3  

 **************************************************************************

 **************************************************************************

                    xk=(  -0.36667,   0.00000,   0.50000  )

     Band symmetry, C_2v (mm2)  point group:

     e(  1 -  1) =    -68.54097  eV     1   --> A_1  D_1  S_1  
     e(  2 -  2) =    -68.54081  eV     1   --> B_1  D_3  S_3  
     e(  3 -  4) =    -34.98550  eV     2   --> A_1  D_1  S_1  
     e(  3 -  4) =    -34.98550  eV     2   --> B_1  D_3  S_3  
     e(  5 -  5) =    -34.68578  eV     1   --> B_2  D_4  S_4  
     e(  6 -  6) =    -34.68562  eV     1   --> A_2  D_2  S_2  
     e(  7 -  8) =    -34.53751  eV     2   --> A_1  D_1  S_1  
     e(  7 -  8) =    -34.53751  eV     2   --> B_1  D_3  S_3  
     e(  9 - 10) =     14.06220  eV     2   --> A_1  D_1  S_1  
     e(  9 - 10) =     14.06220  eV     2   --> B_1  D_3  S_3  
     e( 11 - 12) =     15.78599  eV     2   --> A_2  D_2  S_2  
     e( 11 - 12) =     15.78599  eV     2   --> B_2  D_4  S_4  
     e( 13 - 14) =     17.48016  eV     2   --> A_1  D_1  S_1  
     e( 13 - 14) =     17.48016  eV     2   --> B_1  D_3  S_3  
     e( 15 - 16) =     18.14347  eV     2   --> A_1  D_1  S_1  
     e( 15 - 16) =     18.14347  eV     2   --> B_1  D_3  S_3  
     e( 17 - 18) =     19.56694  eV     2   --> A_2  D_2  S_2  
     e( 17 - 18) =     19.56694  eV     2   --> B_2  D_4  S_4  
     e( 19 - 20) =     19.80436  eV     2   --> A_1  D_1  S_1  
     e( 19 - 20) =     19.80436  eV     2   --> B_1  D_3  S_3  
     e( 21 - 22) =     27.97588  eV     2   --> A_1  D_1  S_1  
     e( 21 - 22) =     27.97588  eV     2   --> B_1  D_3  S_3  
     e( 23 - 24) =     37.66529  eV     2   --> A_1  D_1  S_1  
     e( 23 - 24) =     37.66529  eV     2   --> B_1  D_3  S_3  
     e( 25 - 26) =     38.94460  eV     2   --> A_2  D_2  S_2  
     e( 25 - 26) =     38.94460  eV     2   --> B_2  D_4  S_4  
     e( 27 - 28) =     44.60599  eV     2   --> A_2  D_2  S_2  
     e( 27 - 28) =     44.60599  eV     2   --> B_2  D_4  S_4  
     e( 29 - 30) =     47.56732  eV     2   --> A_1  D_1  S_1  
     e( 29 - 30) =     47.56732  eV     2   --> B_1  D_3  S_3  
     e( 31 - 32) =     51.12979  eV     2   --> A_1  D_1  S_1  
     e( 31 - 32) =     51.12979  eV     2   --> B_1  D_3  S_3  

 **************************************************************************

 **************************************************************************

                    xk=(  -0.40000,   0.00000,   0.50000  )

     Band symmetry, C_2v (mm2)  point group:

     e(  1 -  1) =    -68.54049  eV     1   --> A_1  D_1  S_1  
     e(  2 -  2) =    -68.54033  eV     1   --> B_1  D_3  S_3  
     e(  3 -  4) =    -34.99688  eV     2   --> A_1  D_1  S_1  
     e(  3 -  4) =    -34.99688  eV     2   --> B_1  D_3  S_3  
     e(  5 -  5) =    -34.68529  eV     1   --> B_2  D_4  S_4  
     e(  6 -  6) =    -34.68513  eV     1   --> A_2  D_2  S_2  
     e(  7 -  8) =    -34.53073  eV     2   --> A_1  D_1  S_1  
     e(  7 -  8) =    -34.53073  eV     2   --> B_1  D_3  S_3  
     e(  9 - 10) =     14.01483  eV     2   --> A_1  D_1  S_1  
     e(  9 - 10) =     14.01483  eV     2   --> B_1  D_3  S_3  
     e( 11 - 12) =     15.71247  eV     2   --> A_2  D_2  S_2  
     e( 11 - 12) =     15.71247  eV     2   --> B_2  D_4  S_4  
     e( 13 - 13) =     17.79015  eV     1   --> A_1  D_1  S_1  
     e( 14 - 14) =     17.79025  eV     1   --> B_1  D_3  S_3  
     e( 15 - 16) =     18.18459  eV     2   --> A_1  D_1  S_1  
     e( 15 - 16) =     18.18459  eV     2   --> B_1  D_3  S_3  
     e( 17 - 18) =     19.64022  eV     2   --> A_2  D_2  S_2  
     e( 17 - 18) =     19.64022  eV     2   --> B_2  D_4  S_4  
     e( 19 - 20) =     19.74958  eV     2   --> A_1  D_1  S_1  
     e( 19 - 20) =     19.74958  eV     2   --> B_1  D_3  S_3  
     e( 21 - 22) =     27.52662  eV     2   --> A_1  D_1  S_1  
     e( 21 - 22) =     27.52662  eV     2   --> B_1  D_3  S_3  
     e( 23 - 24) =     37.62140  eV     2   --> A_1  D_1  S_1  
     e( 23 - 24) =     37.62140  eV     2   --> B_1  D_3  S_3  
     e( 25 - 26) =     39.27547  eV     2   --> A_2  D_2  S_2  
     e( 25 - 26) =     39.27547  eV     2   --> B_2  D_4  S_4  
     e( 27 - 28) =     44.05496  eV     2   --> A_2  D_2  S_2  
     e( 27 - 28) =     44.05496  eV     2   --> B_2  D_4  S_4  
     e( 29 - 30) =     47.41950  eV     2   --> A_1  D_1  S_1  
     e( 29 - 30) =     47.41950  eV     2   --> B_1  D_3  S_3  
     e( 31 - 32) =     52.04499  eV     2   --> A_1  D_1  S_1  
     e( 31 - 32) =     52.04499  eV     2   --> B_1  D_3  S_3  

 **************************************************************************

 **************************************************************************

                    xk=(  -0.43333,   0.00000,   0.50000  )

     Band symmetry, C_2v (mm2)  point group:

     e(  1 -  1) =    -68.54013  eV     1   --> A_1  D_1  S_1  
     e(  2 -  2) =    -68.53997  eV     1   --> B_1  D_3  S_3  
     e(  3 -  4) =    -35.00516  eV     2   --> A_1  D_1  S_1  
     e(  3 -  4) =    -35.00516  eV     2   --> B_1  D_3  S_3  
     e(  5 -  5) =    -34.68491  eV     1   --> B_2  D_4  S_4  
     e(  6 -  6) =    -34.68476  eV     1   --> A_2  D_2  S_2  
     e(  7 -  8) =    -34.52585  eV     2   --> A_1  D_1  S_1  
     e(  7 -  8) =    -34.52585  eV     2   --> B_1  D_3  S_3  
     e(  9 - 10) =     13.97916  eV     2   --> A_1  D_1  S_1  
     e(  9 - 10) =     13.97916  eV     2   --> B_1  D_3  S_3  
     e( 11 - 12) =     15.65935  eV     2   --> A_2  D_2  S_2  
     e( 11 - 12) =     15.65935  eV     2   --> B_2  D_4  S_4  
     e( 13 - 13) =     18.06503  eV     1   --> A_1  D_1  S_1  
     e( 14 - 14) =     18.06514  eV     1   --> B_1  D_3  S_3  
     e( 15 - 16) =     18.21820  eV     2   --> A_1  D_1  S_1  
     e( 15 - 16) =     18.21820  eV     2   --> B_1  D_3  S_3  
     e( 17 - 18) =     19.66950  eV     2   --> A_1  D_1  S_1  
     e( 17 - 18) =     19.66950  eV     2   --> B_1  D_3  S_3  
     e( 19 - 20) =     19.69317  eV     2   --> A_2  D_2  S_2  
     e( 19 - 20) =     19.69317  eV     2   --> B_2  D_4  S_4  
     e( 21 - 22) =     27.19284  eV     2   --> A_1  D_1  S_1  
     e( 21 - 22) =     27.19284  eV     2   --> B_1  D_3  S_3  
     e( 23 - 24) =     37.58726  eV     2   --> A_1  D_1  S_1  
     e( 23 - 24) =     37.58726  eV     2   --> B_1  D_3  S_3  
     e( 25 - 26) =     39.57224  eV     2   --> A_2  D_2  S_2  
     e( 25 - 26) =     39.57224  eV     2   --> B_2  D_4  S_4  
     e( 27 - 28) =     43.60144  eV     2   --> A_2  D_2  S_2  
     e( 27 - 28) =     43.60144  eV     2   --> B_2  D_4  S_4  
     e( 29 - 30) =     47.28675  eV     2   --> A_1  D_1  S_1  
     e( 29 - 30) =     47.28675  eV     2   --> B_1  D_3  S_3  
     e( 31 - 32) =     52.85805  eV     2   --> A_1  D_1  S_1  
     e( 31 - 32) =     52.85805  eV     2   --> B_1  D_3  S_3  

 **************************************************************************

 **************************************************************************

                    xk=(  -0.46667,   0.00000,   0.50000  )

     Band symmetry, C_2v (mm2)  point group:

     e(  1 -  1) =    -68.53991  eV     1   --> A_1  D_1  S_1  
     e(  2 -  2) =    -68.53975  eV     1   --> B_1  D_3  S_3  
     e(  3 -  4) =    -35.01020  eV     2   --> A_1  D_1  S_1  
     e(  3 -  4) =    -35.01020  eV     2   --> B_1  D_3  S_3  
     e(  5 -  5) =    -34.68469  eV     1   --> B_2  D_4  S_4  
     e(  6 -  6) =    -34.68454  eV     1   --> A_2  D_2  S_2  
     e(  7 -  8) =    -34.52293  eV     2   --> A_1  D_1  S_1  
     e(  7 -  8) =    -34.52293  eV     2   --> B_1  D_3  S_3  
     e(  9 - 10) =     13.95706  eV     2   --> A_1  D_1  S_1  
     e(  9 - 10) =     13.95706  eV     2   --> B_1  D_3  S_3  
     e( 11 - 12) =     15.62721  eV     2   --> A_2  D_2  S_2  
     e( 11 - 12) =     15.62721  eV     2   --> B_2  D_4  S_4  
     e( 13 - 14) =     18.20932  eV     2   --> A_1  D_1  S_1  
     e( 13 - 14) =     18.20932  eV     2   --> B_1  D_3  S_3  
     e( 15 - 15) =     18.29978  eV     1   --> A_1  D_1  S_1  
     e( 16 - 16) =     18.29991  eV     1   --> B_1  D_3  S_3  
     e( 17 - 18) =     19.58787  eV     2   --> A_1  D_1  S_1  
     e( 17 - 18) =     19.58787  eV     2   --> B_1  D_3  S_3  
     e( 19 - 20) =     19.72516  eV     2   --> A_2  D_2  S_2  
     e( 19 - 20) =     19.72516  eV     2   --> B_2  D_4  S_4  
     e( 21 - 22) =     26.98687  eV     2   --> A_1  D_1  S_1  
     e( 21 - 22) =     26.98687  eV     2   --> B_1  D_3  S_3  
     e( 23 - 24) =     37.56560  eV     2   --> A_1  D_1  S_1  
     e( 23 - 24) =     37.56560  eV     2   --> B_1  D_3  S_3  
     e( 25 - 26) =     39.78949  eV     2   --> A_2  D_2  S_2  
     e( 25 - 26) =     39.78949  eV     2   --> B_2  D_4  S_4  
     e( 27 - 28) =     43.29034  eV     2   --> A_2  D_2  S_2  
     e( 27 - 28) =     43.29034  eV     2   --> B_2  D_4  S_4  
     e( 29 - 30) =     47.19998  eV     2   --> A_1  D_1  S_1  
     e( 29 - 30) =     47.19998  eV     2   --> B_1  D_3  S_3  
     e( 31 - 32) =     53.43521  eV     2   --> A_1  D_1  S_1  
     e( 31 - 32) =     53.43521  eV     2   --> B_1  D_3  S_3  

 **************************************************************************

 **************************************************************************

                    xk=(  -0.50000,   0.00000,   0.50000  )

     point group D_4h(4/mmm)
     there are 10 classes
     the character table:

       E     2C4   C2    2C2'  2C2'' i     2S4   s_h   2s_v  2s_d 
A_1g   1.00  1.00  1.00  1.00  1.00  1.00  1.00  1.00  1.00  1.00
A_2g   1.00  1.00  1.00 -1.00 -1.00  1.00  1.00  1.00 -1.00 -1.00
B_1g   1.00 -1.00  1.00  1.00 -1.00  1.00 -1.00  1.00  1.00 -1.00
B_2g   1.00 -1.00  1.00 -1.00  1.00  1.00 -1.00  1.00 -1.00  1.00
E_g    2.00  0.00 -2.00  0.00  0.00  2.00  0.00 -2.00  0.00  0.00
A_1u   1.00  1.00  1.00  1.00  1.00 -1.00 -1.00 -1.00 -1.00 -1.00
A_2u   1.00  1.00  1.00 -1.00 -1.00 -1.00 -1.00 -1.00  1.00  1.00
B_1u   1.00 -1.00  1.00  1.00 -1.00 -1.00  1.00 -1.00 -1.00  1.00
B_2u   1.00 -1.00  1.00 -1.00  1.00 -1.00  1.00 -1.00  1.00 -1.00
E_u    2.00  0.00 -2.00  0.00  0.00 -2.00  0.00  2.00  0.00  0.00

     the symmetry operations in each class and the name of the first element:

     E        1
                                                                 
     2C4      7    8
                                                                 
     C2       3
                                                                 
     2C2'     2    4
                                                                 
     2C2''    5    6
                                                                 
     i        9
                                                                 
     2S4     15   16
                                                                 
     s_h     11
                                                                 
     2s_v    10   12
                                                                 
[...]

                    xk=(  -0.17500,   0.17500,   0.50000  )

     Band symmetry, C_2v (mm2)  point group:

     e(  1 -  1) =    -68.54297  eV     1   --> A_1  D_1  S_1  
     e(  2 -  2) =    -68.54281  eV     1   --> B_1  D_3  S_3  
     e(  3 -  4) =    -34.89854  eV     2   --> A_1  D_1  S_1  
     e(  3 -  4) =    -34.89854  eV     2   --> B_1  D_3  S_3  
     e(  5 -  5) =    -34.71078  eV     1   --> B_2  D_4  S_4  
     e(  6 -  6) =    -34.71063  eV     1   --> A_2  D_2  S_2  
     e(  7 -  8) =    -34.58317  eV     2   --> A_1  D_1  S_1  
     e(  7 -  8) =    -34.58317  eV     2   --> B_1  D_3  S_3  
     e(  9 - 10) =     14.62958  eV     2   --> A_1  D_1  S_1  
     e(  9 - 10) =     14.62958  eV     2   --> B_1  D_3  S_3  
     e( 11 - 12) =     15.74521  eV     2   --> A_2  D_2  S_2  
     e( 11 - 12) =     15.74521  eV     2   --> B_2  D_4  S_4  
     e( 13 - 14) =     16.50421  eV     2   --> A_1  D_1  S_1  
     e( 13 - 14) =     16.50421  eV     2   --> B_1  D_3  S_3  
     e( 15 - 16) =     17.81905  eV     2   --> A_2  D_2  S_2  
     e( 15 - 16) =     17.81905  eV     2   --> B_2  D_4  S_4  
     e( 17 - 18) =     18.70434  eV     2   --> A_1  D_1  S_1  
     e( 17 - 18) =     18.70434  eV     2   --> B_1  D_3  S_3  
     e( 19 - 20) =     20.46132  eV     2   --> A_1  D_1  S_1  
     e( 19 - 20) =     20.46132  eV     2   --> B_1  D_3  S_3  
     e( 21 - 22) =     32.11871  eV     2   --> A_2  D_2  S_2  
     e( 21 - 22) =     32.11871  eV     2   --> B_2  D_4  S_4  
     e( 23 - 24) =     32.92157  eV     2   --> A_1  D_1  S_1  
     e( 23 - 24) =     32.92157  eV     2   --> B_1  D_3  S_3  
     e( 25 - 26) =     42.24793  eV     2   --> A_1  D_1  S_1  
     e( 25 - 26) =     42.24793  eV     2   --> B_1  D_3  S_3  
     e( 27 - 28) =     42.84948  eV     2   --> A_2  D_2  S_2  
     e( 27 - 28) =     42.84948  eV     2   --> B_2  D_4  S_4  
     e( 29 - 30) =     47.16515  eV     2   --> A_1  D_1  S_1  
     e( 29 - 30) =     47.16515  eV     2   --> B_1  D_3  S_3  
     e( 31 - 32) =     55.16995  eV     2   --> A_2  D_2  S_2  
     e( 31 - 32) =     55.16995  eV     2   --> B_2  D_4  S_4  

 **************************************************************************

 **************************************************************************

                    xk=(  -0.15000,   0.15000,   0.50000  )

     Band symmetry, C_2v (mm2)  point group:

     e(  1 -  1) =    -68.54388  eV     1   --> A_1  D_1  S_1  
     e(  2 -  2) =    -68.54372  eV     1   --> B_1  D_3  S_3  
     e(  3 -  4) =    -34.88353  eV     2   --> A_1  D_1  S_1  
     e(  3 -  4) =    -34.88353  eV     2   --> B_1  D_3  S_3  
     e(  5 -  5) =    -34.70607  eV     1   --> B_2  D_4  S_4  
     e(  6 -  6) =    -34.70592  eV     1   --> A_2  D_2  S_2  
     e(  7 -  8) =    -34.59472  eV     2   --> A_1  D_1  S_1  
     e(  7 -  8) =    -34.59472  eV     2   --> B_1  D_3  S_3  
     e(  9 - 10) =     14.54090  eV     2   --> A_1  D_1  S_1  
     e(  9 - 10) =     14.54090  eV     2   --> B_1  D_3  S_3  
     e( 11 - 12) =     15.79141  eV     2   --> A_2  D_2  S_2  
     e( 11 - 12) =     15.79141  eV     2   --> B_2  D_4  S_4  
     e( 13 - 14) =     16.59199  eV     2   --> A_1  D_1  S_1  
     e( 13 - 14) =     16.59199  eV     2   --> B_1  D_3  S_3  
     e( 15 - 16) =     17.71317  eV     2   --> A_2  D_2  S_2  
     e( 15 - 16) =     17.71317  eV     2   --> B_2  D_4  S_4  
     e( 17 - 18) =     18.70667  eV     2   --> A_1  D_1  S_1  
     e( 17 - 18) =     18.70667  eV     2   --> B_1  D_3  S_3  
     e( 19 - 20) =     20.14646  eV     2   --> A_1  D_1  S_1  
     e( 19 - 20) =     20.14646  eV     2   --> B_1  D_3  S_3  
     e( 21 - 22) =     32.71080  eV     2   --> A_2  D_2  S_2  
     e( 21 - 22) =     32.71080  eV     2   --> B_2  D_4  S_4  
     e( 23 - 24) =     33.48324  eV     2   --> A_1  D_1  S_1  
     e( 23 - 24) =     33.48324  eV     2   --> B_1  D_3  S_3  
     e( 25 - 26) =     41.90818  eV     2   --> A_2  D_2  S_2  
     e( 25 - 26) =     41.90818  eV     2   --> B_2  D_4  S_4  
     e( 27 - 28) =     42.56962  eV     2   --> A_1  D_1  S_1  
     e( 27 - 28) =     42.56962  eV     2   --> B_1  D_3  S_3  
     e( 29 - 30) =     47.19363  eV     2   --> A_1  D_1  S_1  
     e( 29 - 30) =     47.19363  eV     2   --> B_1  D_3  S_3  
     e( 31 - 32) =     54.79673  eV     2   --> A_2  D_2  S_2  
     e( 31 - 32) =     54.79673  eV     2   --> B_2  D_4  S_4  

 **************************************************************************

 **************************************************************************

                    xk=(  -0.12500,   0.12500,   0.50000  )

     Band symmetry, C_2v (mm2)  point group:

     e(  1 -  1) =    -68.54470  eV     1   --> A_1  D_1  S_1  
     e(  2 -  2) =    -68.54454  eV     1   --> B_1  D_3  S_3  
     e(  3 -  4) =    -34.86560  eV     2   --> A_1  D_1  S_1  
     e(  3 -  4) =    -34.86560  eV     2   --> B_1  D_3  S_3  
     e(  5 -  5) =    -34.70187  eV     1   --> B_2  D_4  S_4  
     e(  6 -  6) =    -34.70171  eV     1   --> A_2  D_2  S_2  
     e(  7 -  8) =    -34.60963  eV     2   --> A_1  D_1  S_1  
     e(  7 -  8) =    -34.60963  eV     2   --> B_1  D_3  S_3  
     e(  9 - 10) =     14.45795  eV     2   --> A_1  D_1  S_1  
     e(  9 - 10) =     14.45795  eV     2   --> B_1  D_3  S_3  
     e( 11 - 12) =     15.84428  eV     2   --> A_2  D_2  S_2  
     e( 11 - 12) =     15.84428  eV     2   --> B_2  D_4  S_4  
     e( 13 - 14) =     16.69953  eV     2   --> A_1  D_1  S_1  
     e( 13 - 14) =     16.69953  eV     2   --> B_1  D_3  S_3  
     e( 15 - 16) =     17.60680  eV     2   --> A_2  D_2  S_2  
     e( 15 - 16) =     17.60680  eV     2   --> B_2  D_4  S_4  
     e( 17 - 18) =     18.66844  eV     2   --> A_1  D_1  S_1  
     e( 17 - 18) =     18.66844  eV     2   --> B_1  D_3  S_3  
     e( 19 - 20) =     19.89280  eV     2   --> A_1  D_1  S_1  
     e( 19 - 20) =     19.89280  eV     2   --> B_1  D_3  S_3  
     e( 21 - 22) =     33.33317  eV     2   --> A_2  D_2  S_2  
     e( 21 - 22) =     33.33317  eV     2   --> B_2  D_4  S_4  
     e( 23 - 24) =     34.08276  eV     2   --> A_1  D_1  S_1  
     e( 23 - 24) =     34.08276  eV     2   --> B_1  D_3  S_3  
     e( 25 - 26) =     40.99792  eV     2   --> A_2  D_2  S_2  
     e( 25 - 26) =     40.99792  eV     2   --> B_2  D_4  S_4  
     e( 27 - 28) =     42.32963  eV     2   --> A_1  D_1  S_1  
     e( 27 - 28) =     42.32963  eV     2   --> B_1  D_3  S_3  
     e( 29 - 30) =     47.81911  eV     2   --> A_1  D_1  S_1  
     e( 29 - 30) =     47.81911  eV     2   --> B_1  D_3  S_3  
     e( 31 - 32) =     54.46838  eV     2   --> A_2  D_2  S_2  
     e( 31 - 32) =     54.46838  eV     2   --> B_2  D_4  S_4  

 **************************************************************************

 **************************************************************************

                    xk=(  -0.10000,   0.10000,   0.50000  )

     Band symmetry, C_2v (mm2)  point group:

     e(  1 -  1) =    -68.54540  eV     1   --> A_1  D_1  S_1  
     e(  2 -  2) =    -68.54524  eV     1   --> B_1  D_3  S_3  
     e(  3 -  4) =    -34.84538  eV     2   --> A_1  D_1  S_1  
     e(  3 -  4) =    -34.84538  eV     2   --> B_1  D_3  S_3  
     e(  5 -  5) =    -34.69830  eV     1   --> B_2  D_4  S_4  
     e(  6 -  6) =    -34.69814  eV     1   --> A_2  D_2  S_2  
     e(  7 -  8) =    -34.62732  eV     2   --> A_1  D_1  S_1  
     e(  7 -  8) =    -34.62732  eV     2   --> B_1  D_3  S_3  
     e(  9 - 10) =     14.38435  eV     2   --> A_1  D_1  S_1  
     e(  9 - 10) =     14.38435  eV     2   --> B_1  D_3  S_3  
     e( 11 - 12) =     15.90060  eV     2   --> A_2  D_2  S_2  
     e( 11 - 12) =     15.90060  eV     2   --> B_2  D_4  S_4  
     e( 13 - 14) =     16.82471  eV     2   --> A_1  D_1  S_1  
     e( 13 - 14) =     16.82471  eV     2   --> B_1  D_3  S_3  
     e( 15 - 16) =     17.50454  eV     2   --> A_2  D_2  S_2  
     e( 15 - 16) =     17.50454  eV     2   --> B_2  D_4  S_4  
     e( 17 - 18) =     18.57771  eV     2   --> A_1  D_1  S_1  
     e( 17 - 18) =     18.57771  eV     2   --> B_1  D_3  S_3  
     e( 19 - 20) =     19.71168  eV     2   --> A_1  D_1  S_1  
     e( 19 - 20) =     19.71168  eV     2   --> B_1  D_3  S_3  
     e( 21 - 22) =     33.98402  eV     2   --> A_2  D_2  S_2  
     e( 21 - 22) =     33.98402  eV     2   --> B_2  D_4  S_4  
     e( 23 - 24) =     34.71268  eV     2   --> A_1  D_1  S_1  
     e( 23 - 24) =     34.71268  eV     2   --> B_1  D_3  S_3  
     e( 25 - 26) =     40.11690  eV     2   --> A_2  D_2  S_2  
     e( 25 - 26) =     40.11690  eV     2   --> B_2  D_4  S_4  
     e( 27 - 28) =     41.74461  eV     2   --> A_1  D_1  S_1  
     e( 27 - 28) =     41.74461  eV     2   --> B_1  D_3  S_3  
     e( 29 - 30) =     48.82957  eV     2   --> A_1  D_1  S_1  
     e( 29 - 30) =     48.82957  eV     2   --> B_1  D_3  S_3  
     e( 31 - 32) =     54.19143  eV     2   --> A_2  D_2  S_2  
     e( 31 - 32) =     54.19143  eV     2   --> B_2  D_4  S_4  

 **************************************************************************

 **************************************************************************

                    xk=(  -0.07500,   0.07500,   0.50000  )

     Band symmetry, C_2v (mm2)  point group:

     e(  1 -  1) =    -68.54596  eV     1   --> A_1  D_1  S_1  
     e(  2 -  2) =    -68.54580  eV     1   --> B_1  D_3  S_3  
     e(  3 -  4) =    -34.82380  eV     2   --> A_1  D_1  S_1  
     e(  3 -  4) =    -34.82380  eV     2   --> B_1  D_3  S_3  
     e(  5 -  5) =    -34.69540  eV     1   --> B_2  D_4  S_4  
     e(  6 -  6) =    -34.69525  eV     1   --> A_2  D_2  S_2  
     e(  7 -  8) =    -34.64690  eV     2   --> A_1  D_1  S_1  
     e(  7 -  8) =    -34.64690  eV     2   --> B_1  D_3  S_3  
     e(  9 - 10) =     14.32342  eV     2   --> A_1  D_1  S_1  
     e(  9 - 10) =     14.32342  eV     2   --> B_1  D_3  S_3  
     e( 11 - 12) =     15.95575  eV     2   --> A_2  D_2  S_2  
     e( 11 - 12) =     15.95575  eV     2   --> B_2  D_4  S_4  
     e( 13 - 14) =     16.96252  eV     2   --> A_1  D_1  S_1  
     e( 13 - 14) =     16.96252  eV     2   --> B_1  D_3  S_3  
     e( 15 - 16) =     17.41232  eV     2   --> A_2  D_2  S_2  
     e( 15 - 16) =     17.41232  eV     2   --> B_2  D_4  S_4  
     e( 17 - 18) =     18.43905  eV     2   --> A_1  D_1  S_1  
     e( 17 - 18) =     18.43905  eV     2   --> B_1  D_3  S_3  
     e( 19 - 20) =     19.60110  eV     2   --> A_1  D_1  S_1  
     e( 19 - 20) =     19.60110  eV     2   --> B_1  D_3  S_3  
     e( 21 - 22) =     34.66171  eV     2   --> A_2  D_2  S_2  
     e( 21 - 22) =     34.66171  eV     2   --> B_2  D_4  S_4  
     e( 23 - 24) =     35.35802  eV     2   --> A_1  D_1  S_1  
     e( 23 - 24) =     35.35802  eV     2   --> B_1  D_3  S_3  
     e( 25 - 26) =     39.26365  eV     2   --> A_2  D_2  S_2  
     e( 25 - 26) =     39.26365  eV     2   --> B_2  D_4  S_4  
     e( 27 - 28) =     41.02985  eV     2   --> A_1  D_1  S_1  
     e( 27 - 28) =     41.02985  eV     2   --> B_1  D_3  S_3  
     e( 29 - 30) =     50.01652  eV     2   --> A_1  D_1  S_1  
     e( 29 - 30) =     50.01652  eV     2   --> B_1  D_3  S_3  
     e( 31 - 32) =     53.97097  eV     2   --> A_2  D_2  S_2  
     e( 31 - 32) =     53.97097  eV     2   --> B_2  D_4  S_4  

 **************************************************************************

 **************************************************************************

                    xk=(  -0.05000,   0.05000,   0.50000  )

     Band symmetry, C_2v (mm2)  point group:

     e(  1 -  1) =    -68.54637  eV     1   --> A_1  D_1  S_1  
     e(  2 -  2) =    -68.54621  eV     1   --> B_1  D_3  S_3  
     e(  3 -  4) =    -34.80241  eV     2   --> A_1  D_1  S_1  
     e(  3 -  4) =    -34.80241  eV     2   --> B_1  D_3  S_3  
     e(  5 -  5) =    -34.69328  eV     1   --> B_2  D_4  S_4  
     e(  6 -  6) =    -34.69313  eV     1   --> A_2  D_2  S_2  
     e(  7 -  8) =    -34.66683  eV     2   --> A_1  D_1  S_1  
     e(  7 -  8) =    -34.66683  eV     2   --> B_1  D_3  S_3  
     e(  9 - 10) =     14.27787  eV     2   --> A_1  D_1  S_1  
     e(  9 - 10) =     14.27787  eV     2   --> B_1  D_3  S_3  
     e( 11 - 11) =     16.00349  eV     1   --> B_2  D_4  S_4  
     e( 12 - 12) =     16.00359  eV     1   --> A_2  D_2  S_2  
     e( 13 - 14) =     17.10225  eV     2   --> A_1  D_1  S_1  
     e( 13 - 14) =     17.10225  eV     2   --> B_1  D_3  S_3  
     e( 15 - 15) =     17.33738  eV     1   --> A_2  D_2  S_2  
     e( 16 - 16) =     17.33748  eV     1   --> B_2  D_4  S_4  
     e( 17 - 18) =     18.27942  eV     2   --> A_1  D_1  S_1  
     e( 17 - 18) =     18.27942  eV     2   --> B_1  D_3  S_3  
     e( 19 - 19) =     19.54286  eV     1   --> A_1  D_1  S_1  
     e( 20 - 20) =     19.54296  eV     1   --> B_1  D_3  S_3  
     e( 21 - 22) =     35.36460  eV     2   --> A_2  D_2  S_2  
     e( 21 - 22) =     35.36460  eV     2   --> B_2  D_4  S_4  
     e( 23 - 24) =     35.98518  eV     2   --> A_1  D_1  S_1  
     e( 23 - 24) =     35.98518  eV     2   --> B_1  D_3  S_3  
     e( 25 - 26) =     38.43727  eV     2   --> A_2  D_2  S_2  
     e( 25 - 26) =     38.43727  eV     2   --> B_2  D_4  S_4  
     e( 27 - 28) =     40.31533  eV     2   --> A_1  D_1  S_1  
     e( 27 - 28) =     40.31533  eV     2   --> B_1  D_3  S_3  
     e( 29 - 30) =     51.26631  eV     2   --> A_1  D_1  S_1  
     e( 29 - 30) =     51.26631  eV     2   --> B_1  D_3  S_3  
     e( 31 - 32) =     53.81083  eV     2   --> A_2  D_2  S_2  
     e( 31 - 32) =     53.81083  eV     2   --> B_2  D_4  S_4  

 **************************************************************************

 **************************************************************************

                    xk=(  -0.02500,   0.02500,   0.50000  )

     Band symmetry, C_2v (mm2)  point group:

     e(  1 -  1) =    -68.54661  eV     1   --> A_1  D_1  S_1  
     e(  2 -  2) =    -68.54645  eV     1   --> B_1  D_3  S_3  
     e(  3 -  3) =    -34.78438  eV     1   --> B_1  D_3  S_3  
     e(  4 -  4) =    -34.78425  eV     1   --> A_1  D_1  S_1  
     e(  5 -  5) =    -34.69199  eV     1   --> B_2  D_4  S_4  
     e(  6 -  6) =    -34.69183  eV     1   --> A_2  D_2  S_2  
     e(  7 -  7) =    -34.68397  eV     1   --> A_1  D_1  S_1  
     e(  8 -  8) =    -34.68384  eV     1   --> B_1  D_3  S_3  
     e(  9 - 10) =     14.24973  eV     2   --> A_1  D_1  S_1  
     e(  9 - 10) =     14.24973  eV     2   --> B_1  D_3  S_3  
     e( 11 - 11) =     16.03654  eV     1   --> B_2  D_4  S_4  
     e( 12 - 12) =     16.03665  eV     1   --> A_2  D_2  S_2  
     e( 13 - 13) =     17.22004  eV     1   --> B_1  D_3  S_3  
     e( 14 - 14) =     17.22014  eV     1   --> A_1  D_1  S_1  
     e( 15 - 15) =     17.28772  eV     1   --> A_2  D_2  S_2  
     e( 16 - 16) =     17.28783  eV     1   --> B_2  D_4  S_4  
     e( 17 - 17) =     18.14178  eV     1   --> A_1  D_1  S_1  
     e( 18 - 18) =     18.14189  eV     1   --> B_1  D_3  S_3  
     e( 19 - 19) =     19.51642  eV     1   --> A_1  D_1  S_1  
     e( 20 - 20) =     19.51653  eV     1   --> B_1  D_3  S_3  
     e( 21 - 22) =     36.08967  eV     2   --> A_2  D_2  S_2  
     e( 21 - 22) =     36.08967  eV     2   --> B_2  D_4  S_4  
     e( 23 - 24) =     36.50928  eV     2   --> A_1  D_1  S_1  
     e( 23 - 24) =     36.50928  eV     2   --> B_1  D_3  S_3  
     e( 25 - 26) =     37.63889  eV     2   --> A_2  D_2  S_2  
     e( 25 - 26) =     37.63889  eV     2   --> B_2  D_4  S_4  
     e( 27 - 28) =     39.72738  eV     2   --> A_1  D_1  S_1  
     e( 27 - 28) =     39.72738  eV     2   --> B_1  D_3  S_3  
     e( 29 - 30) =     52.50407  eV     2   --> A_1  D_1  S_1  
     e( 29 - 30) =     52.50407  eV     2   --> B_1  D_3  S_3  
     e( 31 - 32) =     53.71369  eV     2   --> A_2  D_2  S_2  
     e( 31 - 32) =     53.71369  eV     2   --> B_2  D_4  S_4  

 **************************************************************************

 **************************************************************************

                    xk=(   0.00000,   0.00000,   0.50000  )

     point group D_4h(4/mmm)
     there are 10 classes
     the character table:

       E     2C4   C2    2C2'  2C2'' i     2S4   s_h   2s_v  2s_d 
A_1g   1.00  1.00  1.00  1.00  1.00  1.00  1.00  1.00  1.00  1.00
A_2g   1.00  1.00  1.00 -1.00 -1.00  1.00  1.00  1.00 -1.00 -1.00
B_1g   1.00 -1.00  1.00  1.00 -1.00  1.00 -1.00  1.00  1.00 -1.00
B_2g   1.00 -1.00  1.00 -1.00  1.00  1.00 -1.00  1.00 -1.00  1.00
E_g    2.00  0.00 -2.00  0.00  0.00  2.00  0.00 -2.00  0.00  0.00
A_1u   1.00  1.00  1.00  1.00  1.00 -1.00 -1.00 -1.00 -1.00 -1.00
A_2u   1.00  1.00  1.00 -1.00 -1.00 -1.00 -1.00 -1.00  1.00  1.00
B_1u   1.00 -1.00  1.00  1.00 -1.00 -1.00  1.00 -1.00 -1.00  1.00
B_2u   1.00 -1.00  1.00 -1.00  1.00 -1.00  1.00 -1.00  1.00 -1.00
E_u    2.00  0.00 -2.00  0.00  0.00 -2.00  0.00  2.00  0.00  0.00

     the symmetry operations in each class and the name of the first element:

     E        1
                                                                 
     2C4      7    8
                                                                 
     C2       2
                                                                 
     2C2'     3    4
                                                                 
     2C2''    5    6
                                                                 
     i        9
                                                                 
     2S4     15   16
                                                                 
     s_h     10
                                                                 
     2s_v    11   12
                                                                 
     2s_d    13   14
                                                                 

     Band symmetry, D_4h(4/mmm) point group:

     e(  1 -  1) =    -68.54670  eV     1   --> A_1g X_1  M_1  
     e(  2 -  2) =    -68.54654  eV     1   --> A_2u X_4' M_4' 
     e(  3 -  3) =    -34.77653  eV     1   --> A_2u X_4' M_4' 
     e(  4 -  4) =    -34.77637  eV     1   --> A_1g X_1  M_1  
     e(  5 -  6) =    -34.69157  eV     2   --> E_u  X_5' M_5' 
     e(  7 -  8) =    -34.69141  eV     2   --> E_g  X_5  M_5  
     e(  9 - 10) =     14.24021  eV     2   --> A_1g X_1  M_1  
     e(  9 - 10) =     14.24021  eV     2   --> A_2u X_4' M_4' 
     e( 11 - 11) =     16.04841  eV     1   --> B_1g X_2  M_2  
     e( 12 - 12) =     16.04852  eV     1   --> B_2u X_3' M_3' 
     e( 13 - 14) =     17.27022  eV     2   --> E_g  X_5  M_5  
     e( 15 - 16) =     17.27034  eV     2   --> E_u  X_5' M_5' 
     e( 17 - 17) =     18.08368  eV     1   --> B_2g X_3  M_3  
     e( 18 - 18) =     18.08382  eV     1   --> B_1u X_2' M_2' 
     e( 19 - 19) =     19.50895  eV     1   --> A_1g X_1  M_1  
     e( 20 - 20) =     19.50906  eV     1   --> A_2u X_4' M_4' 
     e( 21 - 24) =     36.73685  eV     4   --> E_g  X_5  M_5  
     e( 21 - 24) =     36.73685  eV     4   --> E_u  X_5' M_5' 
     e( 25 - 26) =     36.96737  eV     2   --> B_1g X_2  M_2  
     e( 25 - 26) =     36.96737  eV     2   --> B_2u X_3' M_3' 
     e( 27 - 28) =     39.47689  eV     2   --> A_1g X_1  M_1  
     e( 27 - 28) =     39.47689  eV     2   --> A_2u X_4' M_4' 
     e( 29 - 30) =     53.61775  eV     2   --> B_2g X_3  M_3  
     e( 29 - 30) =     53.61775  eV     2   --> B_1u X_2' M_2' 
     e( 31 - 32) =     53.68113  eV     2   --> E_u  X_5' M_5' 

 **************************************************************************

     BANDS        :     39.98s CPU     43.85s WALL


   This run was terminated on:  11:24:53  12Dec2025            

=------------------------------------------------------------------------------=
   JOB DONE.
=------------------------------------------------------------------------------=
