
     Program BANDS v.7.3.1 starts on  1Jan2025 at  7:32: 8 

     This program is part of the open-source Quantum ESPRESSO suite
     for quantum simulation of materials; please cite
         "P. Giannozzi et al., J. Phys.:Condens. Matter 21 395502 (2009);
         "P. Giannozzi et al., J. Phys.:Condens. Matter 29 465901 (2017);
         "P. Giannozzi et al., J. Chem. Phys. 152 154105 (2020);
          URL http://www.quantum-espresso.org", 
     in publications or presentations arising from this work. More details at
     http://www.quantum-espresso.org/quote

     Parallel version (MPI), running on     6 processors

     MPI processes distributed on     1 nodes
     R & G space division:  proc/nbgrp/npool/nimage =       6
     1521 MiB available memory on the printing compute node when the environment starts


     Reading xml data from directory:

     ./temp/fe.save/
     file Fe.pbesol-spn-kjpaw_psl.1.0.0.UPF: wavefunction(s)  3P 3D renormalized
     file Fe.pbesol-spn-kjpaw_psl.1.0.0.UPF: wavefunction(s)  3P 3D renormalized

     IMPORTANT: XC functional enforced from input :
     Exchange-correlation= PBESOL
                           (   1   4  10   8   0   0   0)
     Any further DFT definition will be discarded
     Please, verify this is what you really want


     Parallelization info
     --------------------
     sticks:   dense  smooth     PW     G-vecs:    dense   smooth      PW
     Min         173      86     29                 4223     1486     274
     Max         174      87     30                 4224     1489     275
     Sum        1041     517    177                25341     8925    1647

     Using Slab Decomposition


     Check: negative core charge=   -0.000003

     negative rho (up, down):  0.000E+00 1.337E-04
     Reading collected, re-writing distributed wavefunctions
     high-symmetry point:  0.0000 0.0000 0.0000   x coordinate   0.0000
     high-symmetry point:  0.0000 0.0000 0.5000   x coordinate   0.5000
     high-symmetry point: -0.5000 0.0000 0.5000   x coordinate   1.0000
     high-symmetry point: -0.5000 0.0000 0.0000   x coordinate   1.5000
     high-symmetry point: -0.5000 0.5000 0.5000   x coordinate   2.2071
     high-symmetry point:  0.0000 0.0000 0.5000   x coordinate   2.9142

     Plottable bands (eV) written to file bands_pp.dat.gnu
     Bands written to file bands_pp.dat

 **************************************************************************

                    xk=(   0.00000,   0.00000,   0.00000  )

     point group O_h (m-3m) 
     there are 10 classes
     the character table:

       E     8C3   3C2   6C4   6C2'  i     8S6   3s_h  6S4   6s_d 
A_1g   1.00  1.00  1.00  1.00  1.00  1.00  1.00  1.00  1.00  1.00
A_2g   1.00  1.00  1.00 -1.00 -1.00  1.00  1.00  1.00 -1.00 -1.00
E_g    2.00 -1.00  2.00  0.00  0.00  2.00 -1.00  2.00  0.00  0.00
T_1g   3.00  0.00 -1.00  1.00 -1.00  3.00  0.00 -1.00  1.00 -1.00
T_2g   3.00  0.00 -1.00 -1.00  1.00  3.00  0.00 -1.00 -1.00  1.00
A_1u   1.00  1.00  1.00  1.00  1.00 -1.00 -1.00 -1.00 -1.00 -1.00
A_2u   1.00  1.00  1.00 -1.00 -1.00 -1.00 -1.00 -1.00  1.00  1.00
E_u    2.00 -1.00  2.00  0.00  0.00 -2.00  1.00 -2.00  0.00  0.00
T_1u   3.00  0.00 -1.00  1.00 -1.00 -3.00  0.00  1.00 -1.00  1.00
T_2u   3.00  0.00 -1.00 -1.00  1.00 -3.00  0.00  1.00  1.00 -1.00

     the symmetry operations in each class and the name of the first element:

     E        1
                                                                 
     8C3     17   19   20   18   24   21   22   23
                                                                 
     3C2      2    4    3
                                                                 
     6C4      7    8   15   16   12   11
                                                                 
     6C2'     5    6   14   13   10    9
                                                                 
     i       25
                                                                 
     8S6     41   43   44   42   48   45   46   47
                                                                 
     3s_h    26   28   27
                                                                 
     6S4     31   32   39   40   36   35
                                                                 
     6s_d    29   30   38   37   34   33
                                                                 

     Band symmetry, O_h (m-3m)  point group:

     e(  1 -  1) =    -67.95333  eV     1   --> A_1g G_1   G_1+
     e(  2 -  2) =    -67.76219  eV     1   --> A_1g G_1   G_1+
     e(  3 -  5) =    -34.18633  eV     3   --> T_1u G_15  G_4-
     e(  6 -  8) =    -33.79940  eV     3   --> T_1u G_15  G_4-
     e(  9 -  9) =     10.84975  eV     1   --> A_1g G_1   G_1+
     e( 10 - 11) =     14.57252  eV     2   --> E_g  G_12  G_3+
     e( 12 - 14) =     17.47230  eV     3   --> T_2g G_25' G_5+
     e( 15 - 16) =     18.89613  eV     2   --> E_g  G_12  G_3+
     e( 17 - 19) =     20.23247  eV     3   --> T_2g G_25' G_5+
     e( 20 - 22) =     30.21147  eV     3   --> T_1u G_15  G_4-
     e( 23 - 24) =     36.30805  eV     2   --> E_g  G_12  G_3+
     e( 25 - 25) =     42.29843  eV     1   --> A_1g G_1   G_1+
     e( 26 - 28) =     44.99085  eV     3   --> T_2u G_25  G_5-
     e( 29 - 30) =     50.97911  eV     2   --> E_g  G_12  G_3+
     e( 31 - 32) =     53.56391  eV     2   -->   ?

 **************************************************************************

 **************************************************************************

                    xk=(   0.00000,   0.00000,   0.02500  )

     point group C_4v (4mm) 
     there are  5 classes
     the character table:

       E     2C4   C2    2s_v  2s_d 
A_1    1.00  1.00  1.00  1.00  1.00
A_2    1.00  1.00  1.00 -1.00 -1.00
B_1    1.00 -1.00  1.00  1.00 -1.00
B_2    1.00 -1.00  1.00 -1.00  1.00
E      2.00  0.00 -2.00  0.00  0.00

     the symmetry operations in each class and the name of the first element:

     E        1
                                                                 
     2C4      3    4
                                                                 
     C2       2
                                                                 
     2s_v     5    6
                                                                 
     2s_d     7    8
                                                                 

     Band symmetry, C_4v (4mm)  point group:

     e(  1 -  1) =    -67.95299  eV     1   --> A_1  G_1 D_1   
     e(  2 -  2) =    -67.76243  eV     1   --> A_1  G_1 D_1   
     e(  3 -  3) =    -34.18629  eV     1   --> A_1  G_1 D_1   
     e(  4 -  5) =    -34.18571  eV     2   --> E    G_5 D_5   
     e(  6 -  6) =    -33.80056  eV     1   --> A_1  G_1 D_1   
     e(  7 -  8) =    -33.79996  eV     2   --> E    G_5 D_5   
     e(  9 -  9) =     10.86368  eV     1   --> A_1  G_1 D_1   
     e( 10 - 10) =     14.57874  eV     1   --> B_1  G_3 D_2   
     e( 11 - 11) =     14.57920  eV     1   --> A_1  G_1 D_1   
     e( 12 - 13) =     17.47206  eV     2   --> E    G_5 D_5   
     e( 14 - 14) =     17.47631  eV     1   --> B_2  G_4 D_2'  
     e( 15 - 15) =     18.88924  eV     1   --> B_1  G_3 D_2   
     e( 16 - 16) =     18.89885  eV     1   --> A_1  G_1 D_1   
     e( 17 - 18) =     20.21920  eV     2   --> E    G_5 D_5   
     e( 19 - 19) =     20.22796  eV     1   --> B_2  G_4 D_2'  
     e( 20 - 20) =     30.11000  eV     1   --> A_1  G_1 D_1   
     e( 21 - 22) =     30.23911  eV     2   --> E    G_5 D_5   
     e( 23 - 23) =     36.31117  eV     1   --> B_1  G_3 D_2   
     e( 24 - 24) =     36.38600  eV     1   --> A_1  G_1 D_1   
     e( 25 - 25) =     42.33948  eV     1   --> A_1  G_1 D_1   
     e( 26 - 26) =     44.90378  eV     1   --> B_1  G_3 D_2   
     e( 27 - 28) =     44.98705  eV     2   --> E    G_5 D_5   
     e( 29 - 29) =     50.85274  eV     1   --> A_1  G_1 D_1   
     e( 30 - 30) =     51.09853  eV     1   --> B_1  G_3 D_2   
     e( 31 - 32) =     53.30121  eV     2   --> E    G_5 D_5   

 **************************************************************************

 **************************************************************************

                    xk=(   0.00000,   0.00000,   0.05000  )

     Band symmetry, C_4v (4mm)  point group:

     e(  1 -  1) =    -67.95197  eV     1   --> A_1  G_1 D_1   
     e(  2 -  2) =    -67.76276  eV     1   --> A_1  G_1 D_1   
     e(  3 -  3) =    -34.18526  eV     1   --> A_1  G_1 D_1   
     e(  4 -  5) =    -34.18355  eV     2   --> E    G_5 D_5   
     e(  6 -  6) =    -33.80403  eV     1   --> A_1  G_1 D_1   
     e(  7 -  8) =    -33.80163  eV     2   --> E    G_5 D_5   
     e(  9 -  9) =     10.90537  eV     1   --> A_1  G_1 D_1   
     e( 10 - 10) =     14.59738  eV     1   --> B_1  G_3 D_2   
     e( 11 - 11) =     14.59909  eV     1   --> A_1  G_1 D_1   
     e( 12 - 13) =     17.47138  eV     2   --> E    G_5 D_5   
     e( 14 - 14) =     17.48830  eV     1   --> B_2  G_4 D_2'  
     e( 15 - 15) =     18.86860  eV     1   --> B_1  G_3 D_2   
     e( 16 - 16) =     18.90696  eV     1   --> A_1  G_1 D_1   
     e( 17 - 18) =     20.17991  eV     2   --> E    G_5 D_5   
     e( 19 - 19) =     20.21447  eV     1   --> B_2  G_4 D_2'  
     e( 20 - 20) =     29.82499  eV     1   --> A_1  G_1 D_1   
     e( 21 - 22) =     30.32179  eV     2   --> E    G_5 D_5   
     e( 23 - 23) =     36.32064  eV     1   --> B_1  G_3 D_2   
     e( 24 - 24) =     36.60017  eV     1   --> A_1  G_1 D_1   
     e( 25 - 25) =     42.47259  eV     1   --> A_1  G_1 D_1   
     e( 26 - 26) =     44.66144  eV     1   --> B_1  G_3 D_2   
     e( 27 - 28) =     44.97378  eV     2   --> E    G_5 D_5   
     e( 29 - 29) =     50.51009  eV     1   --> A_1  G_1 D_1   
     e( 30 - 30) =     51.43789  eV     1   --> B_1  G_3 D_2   
     e( 31 - 32) =     52.80742  eV     2   --> E    G_5 D_5   

 **************************************************************************

 **************************************************************************

                    xk=(   0.00000,   0.00000,   0.07500  )

     Band symmetry, C_4v (4mm)  point group:

     e(  1 -  1) =    -67.95043  eV     1   --> A_1  G_1 D_1   
     e(  2 -  2) =    -67.76392  eV     1   --> A_1  G_1 D_1   
     e(  3 -  3) =    -34.18486  eV     1   --> A_1  G_1 D_1   
     e(  4 -  5) =    -34.18031  eV     2   --> E    G_5 D_5   
     e(  6 -  6) =    -33.81004  eV     1   --> A_1  G_1 D_1   
     e(  7 -  8) =    -33.80451  eV     2   --> E    G_5 D_5   
     e(  9 -  9) =     10.97422  eV     1   --> A_1  G_1 D_1   
     e( 10 - 10) =     14.62832  eV     1   --> B_1  G_3 D_2   
     e( 11 - 11) =     14.63163  eV     1   --> A_1  G_1 D_1   
     e( 12 - 13) =     17.47043  eV     2   --> E    G_5 D_5   
     e( 14 - 14) =     17.50822  eV     1   --> B_2  G_4 D_2'  
     e( 15 - 15) =     18.83433  eV     1   --> B_1  G_3 D_2   
     e( 16 - 16) =     18.92038  eV     1   --> A_1  G_1 D_1   
     e( 17 - 18) =     20.11617  eV     2   --> E    G_5 D_5   
     e( 19 - 19) =     20.19208  eV     1   --> B_2  G_4 D_2'  
     e( 20 - 20) =     29.39618  eV     1   --> A_1  G_1 D_1   
     e( 21 - 22) =     30.45736  eV     2   --> E    G_5 D_5   
     e( 23 - 23) =     36.33643  eV     1   --> B_1  G_3 D_2   
     e( 24 - 24) =     36.90151  eV     1   --> A_1  G_1 D_1   
     e( 25 - 25) =     42.68958  eV     1   --> A_1  G_1 D_1   
     e( 26 - 26) =     44.30647  eV     1   --> B_1  G_3 D_2   
     e( 27 - 28) =     44.94544  eV     2   --> E    G_5 D_5   
     e( 29 - 29) =     50.02207  eV     1   --> A_1  G_1 D_1   
     e( 30 - 30) =     51.95433  eV     1   --> B_1  G_3 D_2   
     e( 31 - 32) =     52.29408  eV     2   --> E    G_5 D_5   

 **************************************************************************

 **************************************************************************

                    xk=(   0.00000,   0.00000,   0.10000  )

     Band symmetry, C_4v (4mm)  point group:

     e(  1 -  1) =    -67.94823  eV     1   --> A_1  G_1 D_1   
     e(  2 -  2) =    -67.76553  eV     1   --> A_1  G_1 D_1   
     e(  3 -  3) =    -34.18431  eV     1   --> A_1  G_1 D_1   
     e(  4 -  5) =    -34.17574  eV     2   --> E    G_5 D_5   
     e(  6 -  6) =    -33.81806  eV     1   --> A_1  G_1 D_1   
     e(  7 -  8) =    -33.80854  eV     2   --> E    G_5 D_5   
     e(  9 -  9) =     11.07010  eV     1   --> A_1  G_1 D_1   
     e( 10 - 10) =     14.67149  eV     1   --> B_1  G_3 D_2   
     e( 11 - 11) =     14.67604  eV     1   --> A_1  G_1 D_1   
     e( 12 - 13) =     17.46952  eV     2   --> E    G_5 D_5   
     e( 14 - 14) =     17.53596  eV     1   --> B_2  G_4 D_2'  
     e( 15 - 15) =     18.78663  eV     1   --> B_1  G_3 D_2   
     e( 16 - 16) =     18.93896  eV     1   --> A_1  G_1 D_1   
     e( 17 - 18) =     20.03042  eV     2   --> E    G_5 D_5   
     e( 19 - 19) =     20.16097  eV     1   --> B_2  G_4 D_2'  
     e( 20 - 20) =     28.86924  eV     1   --> A_1  G_1 D_1   
     e( 21 - 22) =     30.64364  eV     2   --> E    G_5 D_5   
     e( 23 - 23) =     36.35895  eV     1   --> B_1  G_3 D_2   
     e( 24 - 24) =     37.23830  eV     1   --> A_1  G_1 D_1   
     e( 25 - 25) =     43.00795  eV     1   --> A_1  G_1 D_1   
     e( 26 - 26) =     43.88216  eV     1   --> B_1  G_3 D_2   
     e( 27 - 28) =     44.89280  eV     2   --> E    G_5 D_5   
     e( 29 - 29) =     49.44727  eV     1   --> A_1  G_1 D_1   
     e( 30 - 31) =     51.81841  eV     2   --> E    G_5 D_5   
     e( 32 - 32) =     52.60428  eV     1   --> B_1  G_3 D_2   

 **************************************************************************

 **************************************************************************

                    xk=(   0.00000,   0.00000,   0.12500  )

     Band symmetry, C_4v (4mm)  point group:

     e(  1 -  1) =    -67.94520  eV     1   --> A_1  G_1 D_1   
     e(  2 -  2) =    -67.76775  eV     1   --> A_1  G_1 D_1   
     e(  3 -  3) =    -34.18355  eV     1   --> A_1  G_1 D_1   
     e(  4 -  5) =    -34.17019  eV     2   --> E    G_5 D_5   
     e(  6 -  6) =    -33.82772  eV     1   --> A_1  G_1 D_1   
     e(  7 -  8) =    -33.81347  eV     2   --> E    G_5 D_5   
     e(  9 -  9) =     11.19293  eV     1   --> A_1  G_1 D_1   
     e( 10 - 10) =     14.72658  eV     1   --> B_1  G_3 D_2   
     e( 11 - 11) =     14.73109  eV     1   --> A_1  G_1 D_1   
     e( 12 - 13) =     17.46910  eV     2   --> E    G_5 D_5   
     e( 14 - 14) =     17.57139  eV     1   --> B_2  G_4 D_2'  
     e( 15 - 15) =     18.72578  eV     1   --> B_1  G_3 D_2   
     e( 16 - 16) =     18.96252  eV     1   --> A_1  G_1 D_1   
     e( 17 - 18) =     19.92563  eV     2   --> E    G_5 D_5   
     e( 19 - 19) =     20.12135  eV     1   --> B_2  G_4 D_2'  
     e( 20 - 20) =     28.27943  eV     1   --> A_1  G_1 D_1   
     e( 21 - 22) =     30.87705  eV     2   --> E    G_5 D_5   
     e( 23 - 23) =     36.38806  eV     1   --> B_1  G_3 D_2   
     e( 24 - 24) =     37.56929  eV     1   --> A_1  G_1 D_1   
     e( 25 - 25) =     43.42143  eV     1   --> B_1  G_3 D_2   
     e( 26 - 26) =     43.43065  eV     1   --> A_1  G_1 D_1   
     e( 27 - 28) =     44.80372  eV     2   --> E    G_5 D_5   
     e( 29 - 29) =     48.82285  eV     1   --> A_1  G_1 D_1   
     e( 30 - 31) =     51.40740  eV     2   --> E    G_5 D_5   
     e( 32 - 32) =     53.35461  eV     1   --> B_1  G_3 D_2   

 **************************************************************************

 **************************************************************************

                    xk=(   0.00000,   0.00000,   0.15000  )

     Band symmetry, C_4v (4mm)  point group:

     e(  1 -  1) =    -67.94161  eV     1   --> A_1  G_1 D_1   
     e(  2 -  2) =    -67.77045  eV     1   --> A_1  G_1 D_1   
     e(  3 -  3) =    -34.18248  eV     1   --> A_1  G_1 D_1   
     e(  4 -  5) =    -34.16349  eV     2   --> E    G_5 D_5   
     e(  6 -  6) =    -33.83948  eV     1   --> A_1  G_1 D_1   
     e(  7 -  8) =    -33.81946  eV     2   --> E    G_5 D_5   
     e(  9 -  9) =     11.34134  eV     1   --> A_1  G_1 D_1   
     e( 10 - 10) =     14.79340  eV     1   --> B_1  G_3 D_2   
     e( 11 - 11) =     14.79523  eV     1   --> A_1  G_1 D_1   
     e( 12 - 13) =     17.46965  eV     2   --> E    G_5 D_5   
     e( 14 - 14) =     17.61432  eV     1   --> B_2  G_4 D_2'  
     e( 15 - 15) =     18.65215  eV     1   --> B_1  G_3 D_2   
     e( 16 - 16) =     18.99088  eV     1   --> A_1  G_1 D_1   
     e( 17 - 18) =     19.80516  eV     2   --> E    G_5 D_5   
     e( 19 - 19) =     20.07352  eV     1   --> B_2  G_4 D_2'  
     e( 20 - 20) =     27.65251  eV     1   --> A_1  G_1 D_1   
     e( 21 - 22) =     31.15429  eV     2   --> E    G_5 D_5   
     e( 23 - 23) =     36.42423  eV     1   --> B_1  G_3 D_2   
     e( 24 - 24) =     37.86895  eV     1   --> A_1  G_1 D_1   
     e( 25 - 25) =     42.94633  eV     1   --> B_1  G_3 D_2   
     e( 26 - 26) =     43.96262  eV     1   --> A_1  G_1 D_1   
     e( 27 - 28) =     44.66455  eV     2   --> E    G_5 D_5   
     e( 29 - 29) =     48.17162  eV     1   --> A_1  G_1 D_1   
     e( 30 - 31) =     51.07959  eV     2   --> E    G_5 D_5   
     e( 32 - 32) =     53.66067  eV     1   --> B_2  G_4 D_2'  

 **************************************************************************

 **************************************************************************

                    xk=(   0.00000,   0.00000,   0.17500  )

     Band symmetry, C_4v (4mm)  point group:

     e(  1 -  1) =    -67.93744  eV     1   --> A_1  G_1 D_1   
     e(  2 -  2) =    -67.77371  eV     1   --> A_1  G_1 D_1   
     e(  3 -  3) =    -34.18114  eV     1   --> A_1  G_1 D_1   
     e(  4 -  5) =    -34.15574  eV     2   --> E    G_5 D_5   
     e(  6 -  6) =    -33.85296  eV     1   --> A_1  G_1 D_1   
     e(  7 -  8) =    -33.82647  eV     2   --> E    G_5 D_5   
     e(  9 -  9) =     11.51442  eV     1   --> A_1  G_1 D_1   
     e( 10 - 10) =     14.86652  eV     1   --> A_1  G_1 D_1   
     e( 11 - 11) =     14.87163  eV     1   --> B_1  G_3 D_2   
     e( 12 - 13) =     17.47179  eV     2   --> E    G_5 D_5   
     e( 14 - 14) =     17.66454  eV     1   --> B_2  G_4 D_2'  
     e( 15 - 15) =     18.56620  eV     1   --> B_1  G_3 D_2   
     e( 16 - 16) =     19.02387  eV     1   --> A_1  G_1 D_1   
     e( 17 - 18) =     19.67243  eV     2   --> E    G_5 D_5   
     e( 19 - 19) =     20.01780  eV     1   --> B_2  G_4 D_2'  
     e( 20 - 20) =     27.00623  eV     1   --> A_1  G_1 D_1   
     e( 21 - 22) =     31.47164  eV     2   --> E    G_5 D_5   
     e( 23 - 23) =     36.46782  eV     1   --> B_1  G_3 D_2   
     e( 24 - 24) =     38.12642  eV     1   --> A_1  G_1 D_1   
     e( 25 - 25) =     42.47105  eV     1   --> B_1  G_3 D_2   
     e( 26 - 27) =     44.46311  eV     2   --> E    G_5 D_5   
     e( 28 - 28) =     44.59763  eV     1   --> A_1  G_1 D_1   
     e( 29 - 29) =     47.50862  eV     1   --> A_1  G_1 D_1   
     e( 30 - 31) =     50.84966  eV     2   --> E    G_5 D_5   
     e( 32 - 32) =     53.69718  eV     1   --> B_2  G_4 D_2'  

 **************************************************************************

 **************************************************************************

                    xk=(   0.00000,   0.00000,   0.20000  )

     Band symmetry, C_4v (4mm)  point group:

     e(  1 -  1) =    -67.93273  eV     1   --> A_1  G_1 D_1   
     e(  2 -  2) =    -67.77723  eV     1   --> A_1  G_1 D_1   
     e(  3 -  3) =    -34.17914  eV     1   --> A_1  G_1 D_1   
     e(  4 -  5) =    -34.14667  eV     2   --> E    G_5 D_5   
     e(  6 -  6) =    -33.86796  eV     1   --> A_1  G_1 D_1   
     e(  7 -  8) =    -33.83447  eV     2   --> E    G_5 D_5   
     e(  9 -  9) =     11.71092  eV     1   --> A_1  G_1 D_1   
     e( 10 - 10) =     14.94268  eV     1   --> A_1  G_1 D_1   
     e( 11 - 11) =     14.96093  eV     1   --> B_1  G_3 D_2   
     e( 12 - 13) =     17.47617  eV     2   --> E    G_5 D_5   
     e( 14 - 14) =     17.72178  eV     1   --> B_2  G_4 D_2'  
     e( 15 - 15) =     18.46845  eV     1   --> B_1  G_3 D_2   
     e( 16 - 16) =     19.06139  eV     1   --> A_1  G_1 D_1   
     e( 17 - 18) =     19.53078  eV     2   --> E    G_5 D_5   
     e( 19 - 19) =     19.95460  eV     1   --> B_2  G_4 D_2'  
     e( 20 - 20) =     26.35348  eV     1   --> A_1  G_1 D_1   
     e( 21 - 22) =     31.82573  eV     2   --> E    G_5 D_5   
     e( 23 - 23) =     36.51943  eV     1   --> B_1  G_3 D_2   
     e( 24 - 24) =     38.34312  eV     1   --> A_1  G_1 D_1   
     e( 25 - 25) =     42.00466  eV     1   --> B_1  G_3 D_2   
     e( 26 - 27) =     44.19205  eV     2   --> E    G_5 D_5   
     e( 28 - 28) =     45.33062  eV     1   --> A_1  G_1 D_1   
     e( 29 - 29) =     46.84441  eV     1   --> A_1  G_1 D_1   
     e( 30 - 31) =     50.72608  eV     2   --> E    G_5 D_5   
     e( 32 - 32) =     53.74031  eV     1   --> B_2  G_4 D_2'  

 **************************************************************************

 **************************************************************************

                    xk=(   0.00000,   0.00000,   0.22500  )

     Band symmetry, C_4v (4mm)  point group:

     e(  1 -  1) =    -67.92757  eV     1   --> A_1  G_1 D_1   
     e(  2 -  2) =    -67.78132  eV     1   --> A_1  G_1 D_1   
     e(  3 -  3) =    -34.17654  eV     1   --> A_1  G_1 D_1   
     e(  4 -  5) =    -34.13683  eV     2   --> E    G_5 D_5   
     e(  6 -  6) =    -33.88446  eV     1   --> A_1  G_1 D_1   
     e(  7 -  8) =    -33.84342  eV     2   --> E    G_5 D_5   
     e(  9 -  9) =     11.92907  eV     1   --> A_1  G_1 D_1   
     e( 10 - 10) =     15.02089  eV     1   --> A_1  G_1 D_1   
     e( 11 - 11) =     15.06080  eV     1   --> B_1  G_3 D_2   
     e( 12 - 13) =     17.48350  eV     2   --> E    G_5 D_5   
     e( 14 - 14) =     17.78574  eV     1   --> B_2  G_4 D_2'  
     e( 15 - 15) =     18.35953  eV     1   --> B_1  G_3 D_2   
     e( 16 - 16) =     19.10346  eV     1   --> A_1  G_1 D_1   
     e( 17 - 18) =     19.38331  eV     2   --> E    G_5 D_5   
     e( 19 - 19) =     19.88436  eV     1   --> B_2  G_4 D_2'  
     e( 20 - 20) =     25.70281  eV     1   --> A_1  G_1 D_1   
     e( 21 - 22) =     32.21253  eV     2   --> E    G_5 D_5   
     e( 23 - 23) =     36.57921  eV     1   --> B_1  G_3 D_2   
     e( 24 - 24) =     38.52554  eV     1   --> A_1  G_1 D_1   
     e( 25 - 25) =     41.55291  eV     1   --> B_1  G_3 D_2   
     e( 26 - 27) =     43.85086  eV     2   --> E    G_5 D_5   
     e( 28 - 28) =     46.14263  eV     1   --> A_1  G_1 D_1   
     e( 29 - 29) =     46.18693  eV     1   --> A_1  G_1 D_1   
     e( 30 - 31) =     50.70956  eV     2   --> E    G_5 D_5   
     e( 32 - 32) =     53.79047  eV     1   --> B_2  G_4 D_2'  

 **************************************************************************

 **************************************************************************

                    xk=(   0.00000,   0.00000,   0.25000  )

     Band symmetry, C_4v (4mm)  point group:

     e(  1 -  1) =    -67.92189  eV     1   --> A_1  G_1 D_1   
     e(  2 -  2) =    -67.78584  eV     1   --> A_1  G_1 D_1   
     e(  3 -  3) =    -34.17323  eV     1   --> A_1  G_1 D_1   
     e(  4 -  5) =    -34.12609  eV     2   --> E    G_5 D_5   
     e(  6 -  6) =    -33.90181  eV     1   --> A_1  G_1 D_1   
     e(  7 -  8) =    -33.85326  eV     2   --> E    G_5 D_5   
     e(  9 -  9) =     12.16745  eV     1   --> A_1  G_1 D_1   
     e( 10 - 10) =     15.09798  eV     1   --> A_1  G_1 D_1   
     e( 11 - 11) =     15.17077  eV     1   --> B_1  G_3 D_2   
     e( 12 - 13) =     17.49453  eV     2   --> E    G_5 D_5   
     e( 14 - 14) =     17.85608  eV     1   --> B_2  G_4 D_2'  
     e( 15 - 15) =     18.24015  eV     1   --> B_1  G_3 D_2   
     e( 16 - 16) =     19.15031  eV     1   --> A_1  G_1 D_1   
     e( 17 - 18) =     19.23283  eV     2   --> E    G_5 D_5   
     e( 19 - 19) =     19.80757  eV     1   --> B_2  G_4 D_2'  
     e( 20 - 20) =     25.06174  eV     1   --> A_1  G_1 D_1   
     e( 21 - 22) =     32.62904  eV     2   --> E    G_5 D_5   
     e( 23 - 23) =     36.64788  eV     1   --> B_1  G_3 D_2   
     e( 24 - 24) =     38.68356  eV     1   --> A_1  G_1 D_1   
     e( 25 - 25) =     41.11949  eV     1   --> B_1  G_3 D_2   
     e( 26 - 27) =     43.44572  eV     2   --> E    G_5 D_5   
     e( 28 - 28) =     45.54251  eV     1   --> A_1  G_1 D_1   
     e( 29 - 29) =     47.02292  eV     1   --> A_1  G_1 D_1   
     e( 30 - 31) =     50.79405  eV     2   --> E    G_5 D_5   
     e( 32 - 32) =     53.84812  eV     1   --> B_2  G_4 D_2'  

 **************************************************************************

 **************************************************************************

                    xk=(   0.00000,   0.00000,   0.27500  )

     Band symmetry, C_4v (4mm)  point group:

     e(  1 -  1) =    -67.91578  eV     1   --> A_1  G_1 D_1   
     e(  2 -  2) =    -67.79078  eV     1   --> A_1  G_1 D_1   
     e(  3 -  3) =    -34.16909  eV     1   --> A_1  G_1 D_1   
     e(  4 -  5) =    -34.11450  eV     2   --> E    G_5 D_5   
     e(  6 -  6) =    -33.92000  eV     1   --> A_1  G_1 D_1   
     e(  7 -  8) =    -33.86394  eV     2   --> E    G_5 D_5   
     e(  9 -  9) =     12.42358  eV     1   --> A_1  G_1 D_1   
     e( 10 - 10) =     15.17032  eV     1   --> A_1  G_1 D_1   
     e( 11 - 11) =     15.29029  eV     1   --> B_1  G_3 D_2   
     e( 12 - 13) =     17.51001  eV     2   --> E    G_5 D_5   
     e( 14 - 14) =     17.93244  eV     1   --> B_2  G_4 D_2'  
     e( 15 - 15) =     18.11108  eV     1   --> B_1  G_3 D_2   
     e( 16 - 17) =     19.08184  eV     2   --> E    G_5 D_5   
     e( 18 - 18) =     19.20247  eV     1   --> A_1  G_1 D_1   
     e( 19 - 19) =     19.72476  eV     1   --> B_2  G_4 D_2'  
     e( 20 - 20) =     24.43625  eV     1   --> A_1  G_1 D_1   
     e( 21 - 22) =     33.07226  eV     2   --> E    G_5 D_5   
     e( 23 - 23) =     36.72605  eV     1   --> B_1  G_3 D_2   
     e( 24 - 24) =     38.82710  eV     1   --> A_1  G_1 D_1   
     e( 25 - 25) =     40.70666  eV     1   --> B_1  G_3 D_2   
     e( 26 - 27) =     42.98662  eV     2   --> E    G_5 D_5   
     e( 28 - 28) =     44.91635  eV     1   --> A_1  G_1 D_1   
     e( 29 - 29) =     47.95977  eV     1   --> A_1  G_1 D_1   
     e( 30 - 31) =     50.96899  eV     2   --> E    G_5 D_5   
     e( 32 - 32) =     53.91375  eV     1   --> B_2  G_4 D_2'  

 **************************************************************************

 **************************************************************************

                    xk=(   0.00000,   0.00000,   0.30000  )

     Band symmetry, C_4v (4mm)  point group:

     e(  1 -  1) =    -67.90926  eV     1   --> A_1  G_1 D_1   
     e(  2 -  2) =    -67.79627  eV     1   --> A_1  G_1 D_1   
     e(  3 -  3) =    -34.16409  eV     1   --> A_1  G_1 D_1   
     e(  4 -  5) =    -34.10235  eV     2   --> E    G_5 D_5   
     e(  6 -  6) =    -33.93853  eV     1   --> A_1  G_1 D_1   
     e(  7 -  8) =    -33.87541  eV     2   --> E    G_5 D_5   
     e(  9 -  9) =     12.69473  eV     1   --> A_1  G_1 D_1   
     e( 10 - 10) =     15.23375  eV     1   --> A_1  G_1 D_1   
     e( 11 - 11) =     15.41873  eV     1   --> B_1  G_3 D_2   
     e( 12 - 13) =     17.53067  eV     2   --> E    G_5 D_5   
     e( 14 - 14) =     17.97319  eV     1   --> B_1  G_3 D_2   
     e( 15 - 15) =     18.01440  eV     1   --> B_2  G_4 D_2'  
     e( 16 - 17) =     18.93248  eV     2   --> E    G_5 D_5   
     e( 18 - 18) =     19.26088  eV     1   --> A_1  G_1 D_1   
     e( 19 - 19) =     19.63651  eV     1   --> B_2  G_4 D_2'  
     e( 20 - 20) =     23.83157  eV     1   --> A_1  G_1 D_1   
     e( 21 - 22) =     33.53935  eV     2   --> E    G_5 D_5   
     e( 23 - 23) =     36.81436  eV     1   --> B_1  G_3 D_2   
     e( 24 - 24) =     38.96444  eV     1   --> A_1  G_1 D_1   
     e( 25 - 25) =     40.31577  eV     1   --> B_1  G_3 D_2   
     e( 26 - 27) =     42.48479  eV     2   --> E    G_5 D_5   
     e( 28 - 28) =     44.31337  eV     1   --> A_1  G_1 D_1   
     e( 29 - 29) =     48.94115  eV     1   --> A_1  G_1 D_1   
     e( 30 - 31) =     51.22255  eV     2   --> E    G_5 D_5   
     e( 32 - 32) =     53.98787  eV     1   --> B_2  G_4 D_2'  

 **************************************************************************

 **************************************************************************

                    xk=(   0.00000,   0.00000,   0.32500  )

     Band symmetry, C_4v (4mm)  point group:

     e(  1 -  1) =    -67.90241  eV     1   --> A_1  G_1 D_1   
     e(  2 -  2) =    -67.80205  eV     1   --> A_1  G_1 D_1   
     e(  3 -  3) =    -34.15818  eV     1   --> A_1  G_1 D_1   
     e(  4 -  5) =    -34.08934  eV     2   --> E    G_5 D_5   
     e(  6 -  6) =    -33.95760  eV     1   --> A_1  G_1 D_1   
     e(  7 -  8) =    -33.88749  eV     2   --> E    G_5 D_5   
     e(  9 -  9) =     12.97763  eV     1   --> A_1  G_1 D_1   
     e( 10 - 10) =     15.28367  eV     1   --> A_1  G_1 D_1   
     e( 11 - 11) =     15.55543  eV     1   --> B_1  G_3 D_2   
     e( 12 - 13) =     17.55726  eV     2   --> E    G_5 D_5   
     e( 14 - 14) =     17.82741  eV     1   --> B_1  G_3 D_2   
     e( 15 - 15) =     18.10151  eV     1   --> B_2  G_4 D_2'  
     e( 16 - 17) =     18.78658  eV     2   --> E    G_5 D_5   
     e( 18 - 18) =     19.32705  eV     1   --> A_1  G_1 D_1   
     e( 19 - 19) =     19.54342  eV     1   --> B_2  G_4 D_2'  
     e( 20 - 20) =     23.25296  eV     1   --> A_1  G_1 D_1   
     e( 21 - 22) =     34.02801  eV     2   --> E    G_5 D_5   
     e( 23 - 23) =     36.91363  eV     1   --> B_1  G_3 D_2   
     e( 24 - 24) =     39.10412  eV     1   --> A_1  G_1 D_1   
     e( 25 - 25) =     39.94755  eV     1   --> B_1  G_3 D_2   
     e( 26 - 27) =     41.95071  eV     2   --> E    G_5 D_5   
     e( 28 - 28) =     43.73663  eV     1   --> A_1  G_1 D_1   
     e( 29 - 29) =     49.96235  eV     1   --> A_1  G_1 D_1   
     e( 30 - 31) =     51.54358  eV     2   --> E    G_5 D_5   
     e( 32 - 32) =     54.07104  eV     1   --> B_2  G_4 D_2'  

 **************************************************************************

 **************************************************************************

                    xk=(   0.00000,   0.00000,   0.35000  )

     Band symmetry, C_4v (4mm)  point group:

     e(  1 -  1) =    -67.89520  eV     1   --> A_1  G_1 D_1   
     e(  2 -  2) =    -67.80812  eV     1   --> A_1  G_1 D_1   
     e(  3 -  3) =    -34.15097  eV     1   --> A_1  G_1 D_1   
     e(  4 -  5) =    -34.07572  eV     2   --> E    G_5 D_5   
     e(  6 -  6) =    -33.97642  eV     1   --> A_1  G_1 D_1   
     e(  7 -  8) =    -33.90027  eV     2   --> E    G_5 D_5   
     e(  9 -  9) =     13.26809  eV     1   --> A_1  G_1 D_1   
     e( 10 - 10) =     15.31507  eV     1   --> A_1  G_1 D_1   
     e( 11 - 11) =     15.69964  eV     1   --> B_1  G_3 D_2   
     e( 12 - 13) =     17.59046  eV     2   --> E    G_5 D_5   
     e( 14 - 14) =     17.67471  eV     1   --> B_1  G_3 D_2   
     e( 15 - 15) =     18.19328  eV     1   --> B_2  G_4 D_2'  
     e( 16 - 17) =     18.64567  eV     2   --> E    G_5 D_5   
     e( 18 - 18) =     19.40323  eV     1   --> A_1  G_1 D_1   
     e( 19 - 19) =     19.44611  eV     1   --> B_2  G_4 D_2'  
     e( 20 - 20) =     22.70527  eV     1   --> A_1  G_1 D_1   
     e( 21 - 22) =     34.53587  eV     2   --> E    G_5 D_5   
     e( 23 - 23) =     37.02461  eV     1   --> B_1  G_3 D_2   
     e( 24 - 24) =     39.25405  eV     1   --> A_1  G_1 D_1   
     e( 25 - 25) =     39.60210  eV     1   --> B_1  G_3 D_2   
     e( 26 - 27) =     41.39329  eV     2   --> E    G_5 D_5   
     e( 28 - 28) =     43.19017  eV     1   --> A_1  G_1 D_1   
     e( 29 - 29) =     51.01600  eV     1   --> A_1  G_1 D_1   
     e( 30 - 31) =     51.92226  eV     2   --> E    G_5 D_5   
     e( 32 - 32) =     54.16389  eV     1   --> B_2  G_4 D_2'  

 **************************************************************************

 **************************************************************************

                    xk=(   0.00000,   0.00000,   0.37500  )

     Band symmetry, C_4v (4mm)  point group:

     e(  1 -  1) =    -67.88806  eV     1   --> A_1  G_1 D_1   
     e(  2 -  2) =    -67.81463  eV     1   --> A_1  G_1 D_1   
     e(  3 -  3) =    -34.14261  eV     1   --> A_1  G_1 D_1   
     e(  4 -  5) =    -34.06171  eV     2   --> E    G_5 D_5   
     e(  6 -  6) =    -33.99547  eV     1   --> A_1  G_1 D_1   
     e(  7 -  8) =    -33.91394  eV     2   --> E    G_5 D_5   
     e(  9 -  9) =     13.56094  eV     1   --> A_1  G_1 D_1   
     e( 10 - 10) =     15.32265  eV     1   --> A_1  G_1 D_1   
     e( 11 - 11) =     15.85055  eV     1   --> B_1  G_3 D_2   
     e( 12 - 12) =     17.51614  eV     1   --> B_1  G_3 D_2   
     e( 13 - 14) =     17.63089  eV     2   --> E    G_5 D_5   
     e( 15 - 15) =     18.28920  eV     1   --> B_2  G_4 D_2'  
     e( 16 - 17) =     18.51099  eV     2   --> E    G_5 D_5   
     e( 18 - 18) =     19.34525  eV     1   --> B_2  G_4 D_2'  
     e( 19 - 19) =     19.49251  eV     1   --> A_1  G_1 D_1   
     e( 20 - 20) =     22.19366  eV     1   --> A_1  G_1 D_1   
     e( 21 - 22) =     35.06080  eV     2   --> E    G_5 D_5   
     e( 23 - 23) =     37.14811  eV     1   --> B_1  G_3 D_2   
     e( 24 - 24) =     39.27933  eV     1   --> B_1  G_3 D_2   
     e( 25 - 25) =     39.41838  eV     1   --> A_1  G_1 D_1   
     e( 26 - 27) =     40.81955  eV     2   --> E    G_5 D_5   
     e( 28 - 28) =     42.67383  eV     1   --> A_1  G_1 D_1   
     e( 29 - 29) =     52.09325  eV     1   --> A_1  G_1 D_1   
     e( 30 - 31) =     52.35030  eV     2   --> E    G_5 D_5   
     e( 32 - 32) =     54.26636  eV     1   --> B_2  G_4 D_2'  

 **************************************************************************

 **************************************************************************

                    xk=(   0.00000,   0.00000,   0.40000  )

     Band symmetry, C_4v (4mm)  point group:

     e(  1 -  1) =    -67.88075  eV     1   --> A_1  G_1 D_1   
     e(  2 -  2) =    -67.82131  eV     1   --> A_1  G_1 D_1   
     e(  3 -  3) =    -34.13297  eV     1   --> A_1  G_1 D_1   
     e(  4 -  5) =    -34.04718  eV     2   --> E    G_5 D_5   
     e(  6 -  6) =    -34.01458  eV     1   --> A_1  G_1 D_1   
     e(  7 -  8) =    -33.92792  eV     2   --> E    G_5 D_5   
     e(  9 -  9) =     13.85073  eV     1   --> A_1  G_1 D_1   
     e( 10 - 10) =     15.30102  eV     1   --> A_1  G_1 D_1   
     e( 11 - 11) =     16.00730  eV     1   --> B_1  G_3 D_2   
     e( 12 - 12) =     17.35278  eV     1   --> B_1  G_3 D_2   
     e( 13 - 14) =     17.67912  eV     2   --> E    G_5 D_5   
     e( 15 - 16) =     18.38355  eV     2   --> E    G_5 D_5   
     e( 17 - 17) =     18.38874  eV     1   --> B_2  G_4 D_2'  
     e( 18 - 18) =     19.24149  eV     1   --> B_2  G_4 D_2'  
     e( 19 - 19) =     19.59892  eV     1   --> A_1  G_1 D_1   
     e( 20 - 20) =     21.72237  eV     1   --> A_1  G_1 D_1   
     e( 21 - 22) =     35.60085  eV     2   --> E    G_5 D_5   
     e( 23 - 23) =     37.28507  eV     1   --> B_1  G_3 D_2   
     e( 24 - 24) =     38.97885  eV     1   --> B_1  G_3 D_2   
     e( 25 - 25) =     39.60378  eV     1   --> A_1  G_1 D_1   
     e( 26 - 27) =     40.23539  eV     2   --> E    G_5 D_5   
     e( 28 - 28) =     42.19175  eV     1   --> A_1  G_1 D_1   
     e( 29 - 30) =     52.82161  eV     2   --> E    G_5 D_5   
     e( 31 - 31) =     53.19095  eV     1   --> A_1  G_1 D_1   
     e( 32 - 32) =     54.38014  eV     1   --> B_2  G_4 D_2'  

 **************************************************************************

 **************************************************************************

                    xk=(   0.00000,   0.00000,   0.42500  )

     Band symmetry, C_4v (4mm)  point group:

     e(  1 -  1) =    -67.87320  eV     1   --> A_1  G_1 D_1   
     e(  2 -  2) =    -67.82825  eV     1   --> A_1  G_1 D_1   
     e(  3 -  3) =    -34.12210  eV     1   --> A_1  G_1 D_1   
     e(  4 -  4) =    -34.03273  eV     1   --> A_1  G_1 D_1   
     e(  5 -  6) =    -34.03233  eV     2   --> E    G_5 D_5   
     e(  7 -  8) =    -33.94228  eV     2   --> E    G_5 D_5   
     e(  9 -  9) =     14.13158  eV     1   --> A_1  G_1 D_1   
     e( 10 - 10) =     15.24527  eV     1   --> A_1  G_1 D_1   
     e( 11 - 11) =     16.16900  eV     1   --> B_1  G_3 D_2   
     e( 12 - 12) =     17.18573  eV     1   --> B_1  G_3 D_2   
     e( 13 - 14) =     17.73567  eV     2   --> E    G_5 D_5   
     e( 15 - 16) =     18.26411  eV     2   --> E    G_5 D_5   
     e( 17 - 17) =     18.49132  eV     1   --> B_2  G_4 D_2'  
     e( 18 - 18) =     19.13552  eV     1   --> B_2  G_4 D_2'  
     e( 19 - 19) =     19.72776  eV     1   --> A_1  G_1 D_1   
     e( 20 - 20) =     21.29602  eV     1   --> A_1  G_1 D_1   
     e( 21 - 22) =     36.15414  eV     2   --> E    G_5 D_5   
     e( 23 - 23) =     37.43639  eV     1   --> B_1  G_3 D_2   
     e( 24 - 24) =     38.70008  eV     1   --> B_1  G_3 D_2   
     e( 25 - 26) =     39.64562  eV     2   --> E    G_5 D_5   
     e( 27 - 27) =     39.81382  eV     1   --> A_1  G_1 D_1   
     e( 28 - 28) =     41.74514  eV     1   --> A_1  G_1 D_1   
     e( 29 - 30) =     53.33067  eV     2   --> E    G_5 D_5   
     e( 31 - 31) =     54.30010  eV     1   --> A_1  G_1 D_1   
     e( 32 - 32) =     54.50528  eV     1   --> B_2  G_4 D_2'  

 **************************************************************************

 **************************************************************************

                    xk=(   0.00000,   0.00000,   0.45000  )

     Band symmetry, C_4v (4mm)  point group:

     e(  1 -  1) =    -67.86558  eV     1   --> A_1  G_1 D_1   
     e(  2 -  2) =    -67.83542  eV     1   --> A_1  G_1 D_1   
     e(  3 -  3) =    -34.10999  eV     1   --> A_1  G_1 D_1   
     e(  4 -  4) =    -34.05011  eV     1   --> A_1  G_1 D_1   
     e(  5 -  6) =    -34.01728  eV     2   --> E    G_5 D_5   
     e(  7 -  8) =    -33.95699  eV     2   --> E    G_5 D_5   
     e(  9 -  9) =     14.39576  eV     1   --> A_1  G_1 D_1   
     e( 10 - 10) =     15.15161  eV     1   --> A_1  G_1 D_1   
     e( 11 - 11) =     16.33466  eV     1   --> B_1  G_3 D_2   
     e( 12 - 12) =     17.01613  eV     1   --> B_1  G_3 D_2   
     e( 13 - 14) =     17.80092  eV     2   --> E    G_5 D_5   
     e( 15 - 16) =     18.15324  eV     2   --> E    G_5 D_5   
     e( 17 - 17) =     18.59634  eV     1   --> B_2  G_4 D_2'  
     e( 18 - 18) =     19.02802  eV     1   --> B_2  G_4 D_2'  
     e( 19 - 19) =     19.88500  eV     1   --> A_1  G_1 D_1   
     e( 20 - 20) =     20.91790  eV     1   --> A_1  G_1 D_1   
     e( 21 - 22) =     36.71883  eV     2   --> E    G_5 D_5   
     e( 23 - 23) =     37.60302  eV     1   --> B_1  G_3 D_2   
     e( 24 - 24) =     38.44226  eV     1   --> B_1  G_3 D_2   
     e( 25 - 26) =     39.05370  eV     2   --> E    G_5 D_5   
     e( 27 - 27) =     40.05208  eV     1   --> A_1  G_1 D_1   
     e( 28 - 28) =     41.33494  eV     1   --> A_1  G_1 D_1   
     e( 29 - 30) =     53.87304  eV     2   --> E    G_5 D_5   
     e( 31 - 31) =     54.64233  eV     1   --> B_2  G_4 D_2'  
     e( 32 - 32) =     55.31930  eV     1   --> B_2  G_4 D_2'  

 **************************************************************************

 **************************************************************************

                    xk=(   0.00000,   0.00000,   0.47500  )

     Band symmetry, C_4v (4mm)  point group:

     e(  1 -  1) =    -67.85797  eV     1   --> A_1  G_1 D_1   
     e(  2 -  2) =    -67.84276  eV     1   --> A_1  G_1 D_1   
     e(  3 -  3) =    -34.09666  eV     1   --> A_1  G_1 D_1   
     e(  4 -  4) =    -34.06669  eV     1   --> A_1  G_1 D_1   
     e(  5 -  6) =    -34.00210  eV     2   --> E    G_5 D_5   
     e(  7 -  8) =    -33.97195  eV     2   --> E    G_5 D_5   
     e(  9 -  9) =     14.63588  eV     1   --> A_1  G_1 D_1   
     e( 10 - 10) =     15.01808  eV     1   --> A_1  G_1 D_1   
     e( 11 - 11) =     16.50327  eV     1   --> B_1  G_3 D_2   
     e( 12 - 12) =     16.84510  eV     1   --> B_1  G_3 D_2   
     e( 13 - 14) =     17.87518  eV     2   --> E    G_5 D_5   
     e( 15 - 16) =     18.05135  eV     2   --> E    G_5 D_5   
     e( 17 - 17) =     18.70317  eV     1   --> B_2  G_4 D_2'  
     e( 18 - 18) =     18.91968  eV     1   --> B_2  G_4 D_2'  
     e( 19 - 19) =     20.07709  eV     1   --> A_1  G_1 D_1   
     e( 20 - 20) =     20.58955  eV     1   --> A_1  G_1 D_1   
     e( 21 - 22) =     37.29310  eV     2   --> E    G_5 D_5   
     e( 23 - 23) =     37.78594  eV     1   --> B_1  G_3 D_2   
     e( 24 - 24) =     38.20457  eV     1   --> B_1  G_3 D_2   
     e( 25 - 26) =     38.46266  eV     2   --> E    G_5 D_5   
     e( 27 - 27) =     40.32150  eV     1   --> A_1  G_1 D_1   
     e( 28 - 28) =     40.96096  eV     1   --> A_1  G_1 D_1   
     e( 29 - 30) =     54.44506  eV     2   --> E    G_5 D_5   
     e( 31 - 31) =     54.79181  eV     1   --> B_2  G_4 D_2'  
     e( 32 - 32) =     55.13001  eV     1   --> B_2  G_4 D_2'  

 **************************************************************************

 **************************************************************************

                    xk=(   0.00000,   0.00000,   0.50000  )

     point group D_4h(4/mmm)
     there are 10 classes
     the character table:

       E     2C4   C2    2C2'  2C2'' i     2S4   s_h   2s_v  2s_d 
A_1g   1.00  1.00  1.00  1.00  1.00  1.00  1.00  1.00  1.00  1.00
A_2g   1.00  1.00  1.00 -1.00 -1.00  1.00  1.00  1.00 -1.00 -1.00
B_1g   1.00 -1.00  1.00  1.00 -1.00  1.00 -1.00  1.00  1.00 -1.00
B_2g   1.00 -1.00  1.00 -1.00  1.00  1.00 -1.00  1.00 -1.00  1.00
E_g    2.00  0.00 -2.00  0.00  0.00  2.00  0.00 -2.00  0.00  0.00
A_1u   1.00  1.00  1.00  1.00  1.00 -1.00 -1.00 -1.00 -1.00 -1.00
A_2u   1.00  1.00  1.00 -1.00 -1.00 -1.00 -1.00 -1.00  1.00  1.00
B_1u   1.00 -1.00  1.00  1.00 -1.00 -1.00  1.00 -1.00 -1.00  1.00
B_2u   1.00 -1.00  1.00 -1.00  1.00 -1.00  1.00 -1.00  1.00 -1.00
E_u    2.00  0.00 -2.00  0.00  0.00 -2.00  0.00  2.00  0.00  0.00

     the symmetry operations in each class and the name of the first element:

     E        1
                                                                 
     2C4      7    8
                                                                 
     C2       2
                                                                 
     2C2'     3    4
                                                                 
     2C2''    5    6
                                                                 
     i        9
                                                                 
     2S4     15   16
                                                                 
     s_h     10
                                                                 
     2s_v    11   12
                                                                 
     2s_d    13   14
                                                                 

     Band symmetry, D_4h(4/mmm) point group:

     e(  1 -  1) =    -67.85051  eV     1   --> A_1g X_1  M_1  
     e(  2 -  2) =    -67.85028  eV     1   --> A_2u X_4' M_4' 
     e(  3 -  3) =    -34.08240  eV     1   --> A_2u X_4' M_4' 
     e(  4 -  4) =    -34.08218  eV     1   --> A_1g X_1  M_1  
     e(  5 -  6) =    -33.98720  eV     2   --> E_u  X_5' M_5' 
     e(  7 -  8) =    -33.98697  eV     2   --> E_g  X_5  M_5  
     e(  9 - 10) =     14.84507  eV     2   --> A_1g X_1  M_1  
     e(  9 - 10) =     14.84507  eV     2   --> A_2u X_4' M_4' 
     e( 11 - 11) =     16.67369  eV     1   -->   ?
     e( 12 - 12) =     16.67386  eV     1   -->   ?
     e( 13 - 14) =     17.95855  eV     2   --> E_g  X_5  M_5  
     e( 15 - 16) =     17.95872  eV     2   --> E_u  X_5' M_5' 
     e( 17 - 17) =     18.81107  eV     1   -->   ?
     e( 18 - 18) =     18.81126  eV     1   -->   ?
     e( 19 - 19) =     20.31017  eV     1   -->   ?
     e( 20 - 20) =     20.31033  eV     1   -->   ?
     e( 21 - 24) =     37.87502  eV     4   --> E_g  X_5  M_5  
     e( 21 - 24) =     37.87502  eV     4   --> E_u  X_5' M_5' 
     e( 25 - 26) =     37.98606  eV     2   --> B_1g X_2  M_2  
     e( 25 - 26) =     37.98606  eV     2   --> B_2u X_3' M_3' 
     e( 27 - 28) =     40.62306  eV     2   --> A_1g X_1  M_1  
     e( 27 - 28) =     40.62306  eV     2   --> A_2u X_4' M_4' 
     e( 29 - 30) =     54.95415  eV     2   --> B_2g X_3  M_3  
     e( 29 - 30) =     54.95415  eV     2   --> B_1u X_2' M_2' 
     e( 31 - 32) =     55.04364  eV     2   -->   ?

 **************************************************************************

 **************************************************************************

                    xk=(  -0.03333,   0.00000,   0.50000  )

     point group C_2v (mm2) 
     there are  4 classes
     the character table:

       E     C2    s_v   s_v' 
A_1    1.00  1.00  1.00  1.00
A_2    1.00  1.00 -1.00 -1.00
B_1    1.00 -1.00  1.00 -1.00
B_2    1.00 -1.00 -1.00  1.00

     the symmetry operations in each class and the name of the first element:

     E        1
                                                                 
     C2       2
                                                                 
     s_v      4
                                                                 
     s_v'     3
                                                                 

     Band symmetry, C_2v (mm2)  point group:

     e(  1 -  1) =    -67.85031  eV     1   --> A_1  D_1  S_1  
     e(  2 -  2) =    -67.85008  eV     1   --> B_1  D_3  S_3  
     e(  3 -  3) =    -34.09012  eV     1   --> B_1  D_3  S_3  
     e(  4 -  4) =    -34.08993  eV     1   --> A_1  D_1  S_1  
     e(  5 -  5) =    -33.98698  eV     1   --> B_2  D_4  S_4  
     e(  6 -  6) =    -33.98675  eV     1   --> A_2  D_2  S_2  
     e(  7 -  7) =    -33.98001  eV     1   --> A_1  D_1  S_1  
     e(  8 -  8) =    -33.97982  eV     1   --> B_1  D_3  S_3  
     e(  9 - 10) =     14.85345  eV     2   --> A_1  D_1  S_1  
     e(  9 - 10) =     14.85345  eV     2   --> B_1  D_3  S_3  
     e( 11 - 11) =     16.66322  eV     1   -->   ?
     e( 12 - 12) =     16.66338  eV     1   -->   ?
     e( 13 - 13) =     17.90413  eV     1   --> A_2  D_2  S_2  
     e( 14 - 14) =     17.90428  eV     1   --> B_2  D_4  S_4  
     e( 15 - 15) =     17.98219  eV     1   --> B_1  D_3  S_3  
     e( 16 - 16) =     17.98236  eV     1   --> A_1  D_1  S_1  
     e( 17 - 17) =     18.86558  eV     1   -->   ?
     e( 18 - 18) =     18.86575  eV     1   -->   ?
     e( 19 - 19) =     20.31659  eV     1   -->   ?
     e( 20 - 20) =     20.31675  eV     1   -->   ?
     e( 21 - 22) =     37.10432  eV     2   --> A_1  D_1  S_1  
     e( 21 - 22) =     37.10432  eV     2   --> B_1  D_3  S_3  
     e( 23 - 24) =     37.89581  eV     2   --> A_2  D_2  S_2  
     e( 23 - 24) =     37.89581  eV     2   --> B_2  D_4  S_4  
     e( 25 - 26) =     38.53409  eV     2   --> A_1  D_1  S_1  
     e( 25 - 26) =     38.53409  eV     2   --> B_1  D_3  S_3  
     e( 27 - 28) =     40.86768  eV     2   --> A_1  D_1  S_1  
     e( 27 - 28) =     40.86768  eV     2   --> B_1  D_3  S_3  
     e( 29 - 30) =     53.99586  eV     2   --> A_2  D_2  S_2  
     e( 29 - 30) =     53.99586  eV     2   --> B_2  D_4  S_4  
     e( 31 - 32) =     54.86508  eV     2   --> A_1  D_1  S_1  
     e( 31 - 32) =     54.86508  eV     2   --> B_1  D_3  S_3  

 **************************************************************************

 **************************************************************************

                    xk=(  -0.06667,   0.00000,   0.50000  )

     Band symmetry, C_2v (mm2)  point group:

     e(  1 -  1) =    -67.85002  eV     1   --> A_1  D_1  S_1  
     e(  2 -  2) =    -67.84978  eV     1   --> B_1  D_3  S_3  
     e(  3 -  3) =    -34.10883  eV     1   --> B_1  D_3  S_3  
     e(  4 -  4) =    -34.10869  eV     1   --> A_1  D_1  S_1  
     e(  5 -  5) =    -33.98663  eV     1   --> B_2  D_4  S_4  
     e(  6 -  6) =    -33.98641  eV     1   --> A_2  D_2  S_2  
     e(  7 -  7) =    -33.96361  eV     1   --> A_1  D_1  S_1  
     e(  8 -  8) =    -33.96347  eV     1   --> B_1  D_3  S_3  
     e(  9 - 10) =     14.87563  eV     2   --> A_1  D_1  S_1  
     e(  9 - 10) =     14.87563  eV     2   --> B_1  D_3  S_3  
     e( 11 - 11) =     16.63956  eV     1   -->   ?
     e( 12 - 12) =     16.63971  eV     1   -->   ?
     e( 13 - 13) =     17.77089  eV     1   --> A_2  D_2  S_2  
     e( 14 - 14) =     17.77100  eV     1   --> B_2  D_4  S_4  
     e( 15 - 15) =     18.04758  eV     1   --> B_1  D_3  S_3  
     e( 16 - 16) =     18.04772  eV     1   --> A_1  D_1  S_1  
     e( 17 - 17) =     18.99903  eV     1   -->   ?
     e( 18 - 18) =     18.99916  eV     1   -->   ?
     e( 19 - 19) =     20.33538  eV     1   -->   ?
     e( 20 - 20) =     20.33553  eV     1   -->   ?
     e( 21 - 22) =     36.18703  eV     2   --> A_1  D_1  S_1  
     e( 21 - 22) =     36.18703  eV     2   --> B_1  D_3  S_3  
     e( 23 - 24) =     37.95769  eV     2   --> A_2  D_2  S_2  
     e( 23 - 24) =     37.95769  eV     2   --> B_2  D_4  S_4  
     e( 25 - 26) =     38.84287  eV     2   --> A_1  D_1  S_1  
     e( 25 - 26) =     38.84287  eV     2   --> B_1  D_3  S_3  
     e( 27 - 28) =     41.53996  eV     2   --> A_1  D_1  S_1  
     e( 27 - 28) =     41.53996  eV     2   --> B_1  D_3  S_3  
     e( 29 - 30) =     53.02511  eV     2   --> A_2  D_2  S_2  
     e( 29 - 30) =     53.02511  eV     2   --> B_2  D_4  S_4  
     e( 31 - 32) =     54.41359  eV     2   --> A_1  D_1  S_1  
     e( 31 - 32) =     54.41359  eV     2   --> B_1  D_3  S_3  

 **************************************************************************

 **************************************************************************

                    xk=(  -0.10000,   0.00000,   0.50000  )

     Band symmetry, C_2v (mm2)  point group:

     e(  1 -  1) =    -67.84962  eV     1   --> A_1  D_1  S_1  
     e(  2 -  2) =    -67.84938  eV     1   --> B_1  D_3  S_3  
     e(  3 -  3) =    -34.13256  eV     1   --> B_1  D_3  S_3  
     e(  4 -  4) =    -34.13246  eV     1   --> A_1  D_1  S_1  
     e(  5 -  5) =    -33.98621  eV     1   --> B_2  D_4  S_4  
     e(  6 -  6) =    -33.98599  eV     1   --> A_2  D_2  S_2  
     e(  7 -  7) =    -33.94377  eV     1   --> A_1  D_1  S_1  
     e(  8 -  8) =    -33.94366  eV     1   --> B_1  D_3  S_3  
     e(  9 - 10) =     14.90407  eV     2   --> A_1  D_1  S_1  
     e(  9 - 10) =     14.90407  eV     2   --> B_1  D_3  S_3  
     e( 11 - 11) =     16.62196  eV     1   -->   ?
     e( 12 - 12) =     16.62210  eV     1   -->   ?
     e( 13 - 14) =     17.60212  eV     2   --> A_2  D_2  S_2  
     e( 13 - 14) =     17.60212  eV     2   --> B_2  D_4  S_4  
     e( 15 - 15) =     18.14191  eV     1   --> B_1  D_3  S_3  
     e( 16 - 16) =     18.14203  eV     1   --> A_1  D_1  S_1  
     e( 17 - 18) =     19.16810  eV     2   --> A_2  D_2  S_2  
     e( 17 - 18) =     19.16810  eV     2   --> B_2  D_4  S_4  
     e( 19 - 19) =     20.36559  eV     1   -->   ?
     e( 20 - 20) =     20.36574  eV     1   -->   ?
     e( 21 - 22) =     35.24515  eV     2   --> A_1  D_1  S_1  
     e( 21 - 22) =     35.24515  eV     2   --> B_1  D_3  S_3  
     e( 23 - 24) =     38.06027  eV     2   --> A_2  D_2  S_2  
     e( 23 - 24) =     38.06027  eV     2   --> B_2  D_4  S_4  
     e( 25 - 26) =     38.96135  eV     2   --> A_1  D_1  S_1  
     e( 25 - 26) =     38.96135  eV     2   --> B_1  D_3  S_3  
     e( 27 - 28) =     42.46847  eV     2   --> A_1  D_1  S_1  
     e( 27 - 28) =     42.46847  eV     2   --> B_1  D_3  S_3  
     e( 29 - 30) =     52.08521  eV     2   --> A_2  D_2  S_2  
     e( 29 - 30) =     52.08521  eV     2   --> B_2  D_4  S_4  
     e( 31 - 32) =     53.82524  eV     2   --> A_1  D_1  S_1  
     e( 31 - 32) =     53.82524  eV     2   --> B_1  D_3  S_3  

 **************************************************************************

 **************************************************************************

                    xk=(  -0.13333,   0.00000,   0.50000  )

     Band symmetry, C_2v (mm2)  point group:

     e(  1 -  1) =    -67.84902  eV     1   --> A_1  D_1  S_1  
     e(  2 -  2) =    -67.84879  eV     1   --> B_1  D_3  S_3  
     e(  3 -  4) =    -34.15814  eV     2   --> A_1  D_1  S_1  
     e(  3 -  4) =    -34.15814  eV     2   --> B_1  D_3  S_3  
     e(  5 -  5) =    -33.98563  eV     1   --> B_2  D_4  S_4  
     e(  6 -  6) =    -33.98540  eV     1   --> A_2  D_2  S_2  
     e(  7 -  8) =    -33.92324  eV     2   --> A_1  D_1  S_1  
     e(  7 -  8) =    -33.92324  eV     2   --> B_1  D_3  S_3  
     e(  9 - 10) =     14.92740  eV     2   --> A_1  D_1  S_1  
     e(  9 - 10) =     14.92740  eV     2   --> B_1  D_3  S_3  
     e( 11 - 11) =     16.63372  eV     1   -->   ?
     e( 12 - 12) =     16.63385  eV     1   -->   ?
     e( 13 - 14) =     17.42171  eV     2   --> A_2  D_2  S_2  
     e( 13 - 14) =     17.42171  eV     2   --> B_2  D_4  S_4  
     e( 15 - 16) =     18.25175  eV     2   --> A_1  D_1  S_1  
     e( 15 - 16) =     18.25175  eV     2   --> B_1  D_3  S_3  
     e( 17 - 18) =     19.34887  eV     2   --> A_2  D_2  S_2  
     e( 17 - 18) =     19.34887  eV     2   --> B_2  D_4  S_4  
     e( 19 - 19) =     20.40562  eV     1   -->   ?
     e( 20 - 20) =     20.40576  eV     1   -->   ?
     e( 21 - 22) =     34.31072  eV     2   --> A_1  D_1  S_1  
     e( 21 - 22) =     34.31072  eV     2   --> B_1  D_3  S_3  
     e( 23 - 24) =     38.20278  eV     2   --> A_2  D_2  S_2  
     e( 23 - 24) =     38.20278  eV     2   --> B_2  D_4  S_4  
     e( 25 - 26) =     38.99222  eV     2   --> A_1  D_1  S_1  
     e( 25 - 26) =     38.99222  eV     2   --> B_1  D_3  S_3  
     e( 27 - 28) =     43.51813  eV     2   --> A_1  D_1  S_1  
     e( 27 - 28) =     43.51813  eV     2   --> B_1  D_3  S_3  
     e( 29 - 30) =     51.17694  eV     2   --> A_2  D_2  S_2  
     e( 29 - 30) =     51.17694  eV     2   --> B_2  D_4  S_4  
     e( 31 - 32) =     53.18935  eV     2   --> A_1  D_1  S_1  
     e( 31 - 32) =     53.18935  eV     2   --> B_1  D_3  S_3  

 **************************************************************************

 **************************************************************************

                    xk=(  -0.16667,   0.00000,   0.50000  )

     Band symmetry, C_2v (mm2)  point group:

     e(  1 -  1) =    -67.84834  eV     1   --> A_1  D_1  S_1  
     e(  2 -  2) =    -67.84810  eV     1   --> B_1  D_3  S_3  
     e(  3 -  4) =    -34.18423  eV     2   --> A_1  D_1  S_1  
     e(  3 -  4) =    -34.18423  eV     2   --> B_1  D_3  S_3  
     e(  5 -  5) =    -33.98495  eV     1   --> B_2  D_4  S_4  
     e(  6 -  6) =    -33.98472  eV     1   --> A_2  D_2  S_2  
     e(  7 -  8) =    -33.90339  eV     2   --> A_1  D_1  S_1  
     e(  7 -  8) =    -33.90339  eV     2   --> B_1  D_3  S_3  
     e(  9 - 10) =     14.93359  eV     2   --> A_1  D_1  S_1  
     e(  9 - 10) =     14.93359  eV     2   --> B_1  D_3  S_3  
     e( 11 - 11) =     16.69529  eV     1   -->   ?
     e( 12 - 12) =     16.69541  eV     1   -->   ?
     e( 13 - 14) =     17.24128  eV     2   --> A_2  D_2  S_2  
     e( 13 - 14) =     17.24128  eV     2   --> B_2  D_4  S_4  
     e( 15 - 16) =     18.36633  eV     2   --> A_1  D_1  S_1  
     e( 15 - 16) =     18.36633  eV     2   --> B_1  D_3  S_3  
     e( 17 - 18) =     19.52969  eV     2   --> A_2  D_2  S_2  
     e( 17 - 18) =     19.52969  eV     2   --> B_2  D_4  S_4  
     e( 19 - 19) =     20.45257  eV     1   -->   ?
     e( 20 - 20) =     20.45270  eV     1   -->   ?
     e( 21 - 22) =     33.40011  eV     2   --> A_1  D_1  S_1  
     e( 21 - 22) =     33.40011  eV     2   --> B_1  D_3  S_3  
     e( 23 - 24) =     38.38400  eV     2   --> A_2  D_2  S_2  
     e( 23 - 24) =     38.38400  eV     2   --> B_2  D_4  S_4  
     e( 25 - 26) =     38.98110  eV     2   --> A_1  D_1  S_1  
     e( 25 - 26) =     38.98110  eV     2   --> B_1  D_3  S_3  
     e( 27 - 28) =     44.62363  eV     2   --> A_1  D_1  S_1  
     e( 27 - 28) =     44.62363  eV     2   --> B_1  D_3  S_3  
     e( 29 - 30) =     50.30093  eV     2   --> A_2  D_2  S_2  
     e( 29 - 30) =     50.30093  eV     2   --> B_2  D_4  S_4  
     e( 31 - 32) =     52.55905  eV     2   --> A_1  D_1  S_1  
     e( 31 - 32) =     52.55905  eV     2   --> B_1  D_3  S_3  

 **************************************************************************

 **************************************************************************

                    xk=(  -0.20000,   0.00000,   0.50000  )

     Band symmetry, C_2v (mm2)  point group:

     e(  1 -  1) =    -67.84752  eV     1   --> A_1  D_1  S_1  
     e(  2 -  2) =    -67.84728  eV     1   --> B_1  D_3  S_3  
     e(  3 -  4) =    -34.20984  eV     2   --> A_1  D_1  S_1  
     e(  3 -  4) =    -34.20984  eV     2   --> B_1  D_3  S_3  
     e(  5 -  5) =    -33.98415  eV     1   --> B_2  D_4  S_4  
     e(  6 -  6) =    -33.98393  eV     1   --> A_2  D_2  S_2  
     e(  7 -  8) =    -33.88462  eV     2   --> A_1  D_1  S_1  
     e(  7 -  8) =    -33.88462  eV     2   --> B_1  D_3  S_3  
     e(  9 - 10) =     14.91573  eV     2   --> A_1  D_1  S_1  
     e(  9 - 10) =     14.91573  eV     2   --> B_1  D_3  S_3  
     e( 11 - 11) =     16.81879  eV     1   -->   ?
     e( 12 - 12) =     16.81891  eV     1   -->   ?
     e( 13 - 14) =     17.06724  eV     2   --> A_2  D_2  S_2  
     e( 13 - 14) =     17.06724  eV     2   --> B_2  D_4  S_4  
     e( 15 - 16) =     18.47807  eV     2   --> A_1  D_1  S_1  
     e( 15 - 16) =     18.47807  eV     2   --> B_1  D_3  S_3  
     e( 17 - 18) =     19.70412  eV     2   --> A_2  D_2  S_2  
     e( 17 - 18) =     19.70412  eV     2   --> B_2  D_4  S_4  
     e( 19 - 19) =     20.50270  eV     1   -->   ?
     e( 20 - 20) =     20.50282  eV     1   -->   ?
     e( 21 - 22) =     32.52453  eV     2   --> A_1  D_1  S_1  
     e( 21 - 22) =     32.52453  eV     2   --> B_1  D_3  S_3  
     e( 23 - 24) =     38.60233  eV     2   --> A_2  D_2  S_2  
     e( 23 - 24) =     38.60233  eV     2   --> B_2  D_4  S_4  
     e( 25 - 26) =     38.94656  eV     2   --> A_1  D_1  S_1  
     e( 25 - 26) =     38.94656  eV     2   --> B_1  D_3  S_3  
     e( 27 - 28) =     45.74907  eV     2   --> A_1  D_1  S_1  
     e( 27 - 28) =     45.74907  eV     2   --> B_1  D_3  S_3  
     e( 29 - 30) =     49.45797  eV     2   --> A_2  D_2  S_2  
     e( 29 - 30) =     49.45797  eV     2   --> B_2  D_4  S_4  
     e( 31 - 32) =     51.97252  eV     2   --> A_1  D_1  S_1  
     e( 31 - 32) =     51.97252  eV     2   --> B_1  D_3  S_3  

 **************************************************************************

 **************************************************************************

                    xk=(  -0.23333,   0.00000,   0.50000  )

     Band symmetry, C_2v (mm2)  point group:

     e(  1 -  1) =    -67.84673  eV     1   --> A_1  D_1  S_1  
     e(  2 -  2) =    -67.84649  eV     1   --> B_1  D_3  S_3  
     e(  3 -  4) =    -34.23454  eV     2   --> A_1  D_1  S_1  
     e(  3 -  4) =    -34.23454  eV     2   --> B_1  D_3  S_3  
     e(  5 -  5) =    -33.98344  eV     1   --> B_2  D_4  S_4  
     e(  6 -  6) =    -33.98322  eV     1   --> A_2  D_2  S_2  
     e(  7 -  8) =    -33.86745  eV     2   --> A_1  D_1  S_1  
     e(  7 -  8) =    -33.86745  eV     2   --> B_1  D_3  S_3  
     e(  9 - 10) =     14.87447  eV     2   --> A_1  D_1  S_1  
     e(  9 - 10) =     14.87447  eV     2   --> B_1  D_3  S_3  
     e( 11 - 12) =     16.90372  eV     2   --> A_2  D_2  S_2  
     e( 11 - 12) =     16.90372  eV     2   --> B_2  D_4  S_4  
     e( 13 - 13) =     17.00522  eV     1   --> A_1  D_1  S_1  
     e( 14 - 14) =     17.00534  eV     1   --> B_1  D_3  S_3  
     e( 15 - 16) =     18.58203  eV     2   --> A_1  D_1  S_1  
     e( 15 - 16) =     18.58203  eV     2   --> B_1  D_3  S_3  
     e( 17 - 18) =     19.86800  eV     2   --> A_2  D_2  S_2  
     e( 17 - 18) =     19.86800  eV     2   --> B_2  D_4  S_4  
     e( 19 - 19) =     20.55048  eV     1   -->   ?
     e( 20 - 20) =     20.55059  eV     1   -->   ?
     e( 21 - 22) =     31.69233  eV     2   --> A_1  D_1  S_1  
     e( 21 - 22) =     31.69233  eV     2   --> B_1  D_3  S_3  
     e( 23 - 24) =     38.85539  eV     2   --> A_2  D_2  S_2  
     e( 23 - 24) =     38.85539  eV     2   --> B_2  D_4  S_4  
     e( 25 - 26) =     38.89715  eV     2   --> A_1  D_1  S_1  
     e( 25 - 26) =     38.89715  eV     2   --> B_1  D_3  S_3  
     e( 27 - 28) =     46.85858  eV     2   --> A_1  D_1  S_1  
     e( 27 - 28) =     46.85858  eV     2   --> B_1  D_3  S_3  
     e( 29 - 30) =     48.64968  eV     2   --> A_2  D_2  S_2  
     e( 29 - 30) =     48.64968  eV     2   --> B_2  D_4  S_4  
     e( 31 - 32) =     51.46621  eV     2   --> A_1  D_1  S_1  
     e( 31 - 32) =     51.46621  eV     2   --> B_1  D_3  S_3  

 **************************************************************************

 **************************************************************************

                    xk=(  -0.26667,   0.00000,   0.50000  )

     Band symmetry, C_2v (mm2)  point group:

     e(  1 -  1) =    -67.84592  eV     1   --> A_1  D_1  S_1  
     e(  2 -  2) =    -67.84569  eV     1   --> B_1  D_3  S_3  
     e(  3 -  4) =    -34.25766  eV     2   --> A_1  D_1  S_1  
     e(  3 -  4) =    -34.25766  eV     2   --> B_1  D_3  S_3  
     e(  5 -  5) =    -33.98269  eV     1   --> B_2  D_4  S_4  
     e(  6 -  6) =    -33.98246  eV     1   --> A_2  D_2  S_2  
     e(  7 -  8) =    -33.85203  eV     2   --> A_1  D_1  S_1  
     e(  7 -  8) =    -33.85203  eV     2   --> B_1  D_3  S_3  
     e(  9 - 10) =     14.81673  eV     2   --> A_1  D_1  S_1  
     e(  9 - 10) =     14.81673  eV     2   --> B_1  D_3  S_3  
     e( 11 - 12) =     16.75371  eV     2   --> A_2  D_2  S_2  
     e( 11 - 12) =     16.75371  eV     2   --> B_2  D_4  S_4  
     e( 13 - 13) =     17.24704  eV     1   --> A_1  D_1  S_1  
     e( 14 - 14) =     17.24716  eV     1   --> B_1  D_3  S_3  
     e( 15 - 16) =     18.67529  eV     2   --> A_1  D_1  S_1  
     e( 15 - 16) =     18.67529  eV     2   --> B_1  D_3  S_3  
     e( 17 - 18) =     20.01831  eV     2   --> A_2  D_2  S_2  
     e( 17 - 18) =     20.01831  eV     2   --> B_2  D_4  S_4  
     e( 19 - 20) =     20.58942  eV     2   --> A_1  D_1  S_1  
     e( 19 - 20) =     20.58942  eV     2   --> B_1  D_3  S_3  
     e( 21 - 22) =     30.91334  eV     2   --> A_1  D_1  S_1  
     e( 21 - 22) =     30.91334  eV     2   --> B_1  D_3  S_3  
     e( 23 - 24) =     38.83842  eV     2   --> A_1  D_1  S_1  
     e( 23 - 24) =     38.83842  eV     2   --> B_1  D_3  S_3  
     e( 25 - 26) =     39.14040  eV     2   --> A_2  D_2  S_2  
     e( 25 - 26) =     39.14040  eV     2   --> B_2  D_4  S_4  
     e( 27 - 28) =     47.87789  eV     2   --> A_2  D_2  S_2  
     e( 27 - 28) =     47.87789  eV     2   --> B_2  D_4  S_4  
     e( 29 - 30) =     47.88498  eV     2   --> A_1  D_1  S_1  
     e( 29 - 30) =     47.88498  eV     2   --> B_1  D_3  S_3  
     e( 31 - 32) =     51.10791  eV     2   --> A_1  D_1  S_1  
     e( 31 - 32) =     51.10791  eV     2   --> B_1  D_3  S_3  

 **************************************************************************

 **************************************************************************

                    xk=(  -0.30000,   0.00000,   0.50000  )

     Band symmetry, C_2v (mm2)  point group:

     e(  1 -  1) =    -67.84504  eV     1   --> A_1  D_1  S_1  
     e(  2 -  2) =    -67.84480  eV     1   --> B_1  D_3  S_3  
     e(  3 -  4) =    -34.27868  eV     2   --> A_1  D_1  S_1  
     e(  3 -  4) =    -34.27868  eV     2   --> B_1  D_3  S_3  
     e(  5 -  5) =    -33.98171  eV     1   --> B_2  D_4  S_4  
     e(  6 -  6) =    -33.98149  eV     1   --> A_2  D_2  S_2  
     e(  7 -  8) =    -33.83847  eV     2   --> A_1  D_1  S_1  
     e(  7 -  8) =    -33.83847  eV     2   --> B_1  D_3  S_3  
     e(  9 - 10) =     14.75109  eV     2   --> A_1  D_1  S_1  
     e(  9 - 10) =     14.75109  eV     2   --> B_1  D_3  S_3  
     e( 11 - 12) =     16.61954  eV     2   --> A_2  D_2  S_2  
     e( 11 - 12) =     16.61954  eV     2   --> B_2  D_4  S_4  
     e( 13 - 13) =     17.53244  eV     1   --> A_1  D_1  S_1  
     e( 14 - 14) =     17.53257  eV     1   --> B_1  D_3  S_3  
     e( 15 - 16) =     18.75634  eV     2   --> A_1  D_1  S_1  
     e( 15 - 16) =     18.75634  eV     2   --> B_1  D_3  S_3  
     e( 17 - 18) =     20.15272  eV     2   --> A_2  D_2  S_2  
     e( 17 - 18) =     20.15272  eV     2   --> B_2  D_4  S_4  
     e( 19 - 20) =     20.61191  eV     2   --> A_1  D_1  S_1  
     e( 19 - 20) =     20.61191  eV     2   --> B_1  D_3  S_3  
     e( 21 - 22) =     30.19804  eV     2   --> A_1  D_1  S_1  
     e( 21 - 22) =     30.19804  eV     2   --> B_1  D_3  S_3  
     e( 23 - 24) =     38.77496  eV     2   --> A_1  D_1  S_1  
     e( 23 - 24) =     38.77496  eV     2   --> B_1  D_3  S_3  
     e( 25 - 26) =     39.45314  eV     2   --> A_2  D_2  S_2  
     e( 25 - 26) =     39.45314  eV     2   --> B_2  D_4  S_4  
     e( 27 - 28) =     47.14625  eV     2   --> A_2  D_2  S_2  
     e( 27 - 28) =     47.14625  eV     2   --> B_2  D_4  S_4  
     e( 29 - 30) =     48.66011  eV     2   --> A_1  D_1  S_1  
     e( 29 - 30) =     48.66011  eV     2   --> B_1  D_3  S_3  
     e( 31 - 32) =     51.05975  eV     2   --> A_1  D_1  S_1  
     e( 31 - 32) =     51.05975  eV     2   --> B_1  D_3  S_3  

 **************************************************************************

 **************************************************************************

                    xk=(  -0.33333,   0.00000,   0.50000  )

     Band symmetry, C_2v (mm2)  point group:

     e(  1 -  1) =    -67.84431  eV     1   --> A_1  D_1  S_1  
     e(  2 -  2) =    -67.84407  eV     1   --> B_1  D_3  S_3  
     e(  3 -  4) =    -34.29737  eV     2   --> A_1  D_1  S_1  
     e(  3 -  4) =    -34.29737  eV     2   --> B_1  D_3  S_3  
     e(  5 -  5) =    -33.98098  eV     1   --> B_2  D_4  S_4  
     e(  6 -  6) =    -33.98075  eV     1   --> A_2  D_2  S_2  
     e(  7 -  8) =    -33.82692  eV     2   --> A_1  D_1  S_1  
     e(  7 -  8) =    -33.82692  eV     2   --> B_1  D_3  S_3  
     e(  9 - 10) =     14.68502  eV     2   --> A_1  D_1  S_1  
     e(  9 - 10) =     14.68502  eV     2   --> B_1  D_3  S_3  
     e( 11 - 12) =     16.50306  eV     2   --> A_2  D_2  S_2  
     e( 11 - 12) =     16.50306  eV     2   --> B_2  D_4  S_4  
     e( 13 - 13) =     17.84773  eV     1   --> A_1  D_1  S_1  
     e( 14 - 14) =     17.84786  eV     1   --> B_1  D_3  S_3  
     e( 15 - 16) =     18.82466  eV     2   --> A_1  D_1  S_1  
     e( 15 - 16) =     18.82466  eV     2   --> B_1  D_3  S_3  
     e( 17 - 18) =     20.26936  eV     2   --> A_2  D_2  S_2  
     e( 17 - 18) =     20.26936  eV     2   --> B_2  D_4  S_4  
     e( 19 - 20) =     20.60996  eV     2   --> A_1  D_1  S_1  
     e( 19 - 20) =     20.60996  eV     2   --> B_1  D_3  S_3  
     e( 21 - 22) =     29.55755  eV     2   --> A_1  D_1  S_1  
     e( 21 - 22) =     29.55755  eV     2   --> B_1  D_3  S_3  
     e( 23 - 24) =     38.71060  eV     2   --> A_1  D_1  S_1  
     e( 23 - 24) =     38.71060  eV     2   --> B_1  D_3  S_3  
     e( 25 - 26) =     39.78709  eV     2   --> A_2  D_2  S_2  
     e( 25 - 26) =     39.78709  eV     2   --> B_2  D_4  S_4  
     e( 27 - 28) =     46.45967  eV     2   --> A_2  D_2  S_2  
     e( 27 - 28) =     46.45967  eV     2   --> B_2  D_4  S_4  
     e( 29 - 30) =     48.96070  eV     2   --> A_1  D_1  S_1  
     e( 29 - 30) =     48.96070  eV     2   --> B_1  D_3  S_3  
     e( 31 - 32) =     51.53082  eV     2   --> A_1  D_1  S_1  
     e( 31 - 32) =     51.53082  eV     2   --> B_1  D_3  S_3  

 **************************************************************************

 **************************************************************************

                    xk=(  -0.36667,   0.00000,   0.50000  )

     Band symmetry, C_2v (mm2)  point group:

     e(  1 -  1) =    -67.84359  eV     1   --> A_1  D_1  S_1  
     e(  2 -  2) =    -67.84336  eV     1   --> B_1  D_3  S_3  
     e(  3 -  4) =    -34.31305  eV     2   --> A_1  D_1  S_1  
     e(  3 -  4) =    -34.31305  eV     2   --> B_1  D_3  S_3  
     e(  5 -  5) =    -33.98030  eV     1   --> B_2  D_4  S_4  
     e(  6 -  6) =    -33.98007  eV     1   --> A_2  D_2  S_2  
     e(  7 -  8) =    -33.81729  eV     2   --> A_1  D_1  S_1  
     e(  7 -  8) =    -33.81729  eV     2   --> B_1  D_3  S_3  
     e(  9 - 10) =     14.62446  eV     2   --> A_1  D_1  S_1  
     e(  9 - 10) =     14.62446  eV     2   --> B_1  D_3  S_3  
     e( 11 - 12) =     16.40579  eV     2   --> A_2  D_2  S_2  
     e( 11 - 12) =     16.40579  eV     2   --> B_2  D_4  S_4  
     e( 13 - 13) =     18.17755  eV     1   --> A_1  D_1  S_1  
     e( 14 - 14) =     18.17769  eV     1   --> B_1  D_3  S_3  
     e( 15 - 16) =     18.88032  eV     2   --> A_1  D_1  S_1  
     e( 15 - 16) =     18.88032  eV     2   --> B_1  D_3  S_3  
     e( 17 - 18) =     20.36673  eV     2   --> A_2  D_2  S_2  
     e( 17 - 18) =     20.36673  eV     2   --> B_2  D_4  S_4  
     e( 19 - 20) =     20.57693  eV     2   --> A_1  D_1  S_1  
     e( 19 - 20) =     20.57693  eV     2   --> B_1  D_3  S_3  
     e( 21 - 22) =     29.00556  eV     2   --> A_1  D_1  S_1  
     e( 21 - 22) =     29.00556  eV     2   --> B_1  D_3  S_3  
     e( 23 - 24) =     38.65025  eV     2   --> A_1  D_1  S_1  
     e( 23 - 24) =     38.65025  eV     2   --> B_1  D_3  S_3  
     e( 25 - 26) =     40.13245  eV     2   --> A_2  D_2  S_2  
     e( 25 - 26) =     40.13245  eV     2   --> B_2  D_4  S_4  
     e( 27 - 28) =     45.82738  eV     2   --> A_2  D_2  S_2  
     e( 27 - 28) =     45.82738  eV     2   --> B_2  D_4  S_4  
     e( 29 - 30) =     48.91749  eV     2   --> A_1  D_1  S_1  
     e( 29 - 30) =     48.91749  eV     2   --> B_1  D_3  S_3  
     e( 31 - 32) =     52.36720  eV     2   --> A_1  D_1  S_1  
     e( 31 - 32) =     52.36720  eV     2   --> B_1  D_3  S_3  

 **************************************************************************

 **************************************************************************

                    xk=(  -0.40000,   0.00000,   0.50000  )

     Band symmetry, C_2v (mm2)  point group:

     e(  1 -  1) =    -67.84302  eV     1   --> A_1  D_1  S_1  
     e(  2 -  2) =    -67.84278  eV     1   --> B_1  D_3  S_3  
     e(  3 -  4) =    -34.32562  eV     2   --> A_1  D_1  S_1  
     e(  3 -  4) =    -34.32562  eV     2   --> B_1  D_3  S_3  
     e(  5 -  5) =    -33.97974  eV     1   --> B_2  D_4  S_4  
     e(  6 -  6) =    -33.97951  eV     1   --> A_2  D_2  S_2  
     e(  7 -  8) =    -33.80980  eV     2   --> A_1  D_1  S_1  
     e(  7 -  8) =    -33.80980  eV     2   --> B_1  D_3  S_3  
     e(  9 - 10) =     14.57361  eV     2   --> A_1  D_1  S_1  
     e(  9 - 10) =     14.57361  eV     2   --> B_1  D_3  S_3  
     e( 11 - 12) =     16.32893  eV     2   --> A_2  D_2  S_2  
     e( 11 - 12) =     16.32893  eV     2   --> B_2  D_4  S_4  
     e( 13 - 13) =     18.50270  eV     1   --> A_1  D_1  S_1  
     e( 14 - 14) =     18.50285  eV     1   --> B_1  D_3  S_3  
     e( 15 - 16) =     18.92405  eV     2   --> A_1  D_1  S_1  
     e( 15 - 16) =     18.92405  eV     2   --> B_1  D_3  S_3  
     e( 17 - 18) =     20.44365  eV     2   --> A_2  D_2  S_2  
     e( 17 - 18) =     20.44365  eV     2   --> B_2  D_4  S_4  
     e( 19 - 20) =     20.50979  eV     2   --> A_1  D_1  S_1  
     e( 19 - 20) =     20.50979  eV     2   --> B_1  D_3  S_3  
     e( 21 - 22) =     28.55594  eV     2   --> A_1  D_1  S_1  
     e( 21 - 22) =     28.55594  eV     2   --> B_1  D_3  S_3  
     e( 23 - 24) =     38.59778  eV     2   --> A_1  D_1  S_1  
     e( 23 - 24) =     38.59778  eV     2   --> B_1  D_3  S_3  
     e( 25 - 26) =     40.47264  eV     2   --> A_2  D_2  S_2  
     e( 25 - 26) =     40.47264  eV     2   --> B_2  D_4  S_4  
     e( 27 - 28) =     45.26495  eV     2   --> A_2  D_2  S_2  
     e( 27 - 28) =     45.26495  eV     2   --> B_2  D_4  S_4  
     e( 29 - 30) =     48.78047  eV     2   --> A_1  D_1  S_1  
     e( 29 - 30) =     48.78047  eV     2   --> B_1  D_3  S_3  
     e( 31 - 32) =     53.27583  eV     2   --> A_1  D_1  S_1  
     e( 31 - 32) =     53.27583  eV     2   --> B_1  D_3  S_3  

 **************************************************************************

 **************************************************************************

                    xk=(  -0.43333,   0.00000,   0.50000  )

     Band symmetry, C_2v (mm2)  point group:

     e(  1 -  1) =    -67.84264  eV     1   --> A_1  D_1  S_1  
     e(  2 -  2) =    -67.84240  eV     1   --> B_1  D_3  S_3  
     e(  3 -  4) =    -34.33487  eV     2   --> A_1  D_1  S_1  
     e(  3 -  4) =    -34.33487  eV     2   --> B_1  D_3  S_3  
     e(  5 -  5) =    -33.97933  eV     1   --> B_2  D_4  S_4  
     e(  6 -  6) =    -33.97910  eV     1   --> A_2  D_2  S_2  
     e(  7 -  8) =    -33.80452  eV     2   --> A_1  D_1  S_1  
     e(  7 -  8) =    -33.80452  eV     2   --> B_1  D_3  S_3  
     e(  9 - 10) =     14.53541  eV     2   --> A_1  D_1  S_1  
     e(  9 - 10) =     14.53541  eV     2   --> B_1  D_3  S_3  
     e( 11 - 12) =     16.27338  eV     2   --> A_2  D_2  S_2  
     e( 11 - 12) =     16.27338  eV     2   --> B_2  D_4  S_4  
     e( 13 - 13) =     18.79380  eV     1   --> A_1  D_1  S_1  
     e( 14 - 14) =     18.79396  eV     1   --> B_1  D_3  S_3  
     e( 15 - 16) =     18.95944  eV     2   --> A_1  D_1  S_1  
     e( 15 - 16) =     18.95944  eV     2   --> B_1  D_3  S_3  
     e( 17 - 18) =     20.41500  eV     2   --> A_1  D_1  S_1  
     e( 17 - 18) =     20.41500  eV     2   --> B_1  D_3  S_3  
     e( 19 - 20) =     20.49923  eV     2   --> A_2  D_2  S_2  
     e( 19 - 20) =     20.49923  eV     2   --> B_2  D_4  S_4  
     e( 21 - 22) =     28.22235  eV     2   --> A_1  D_1  S_1  
     e( 21 - 22) =     28.22235  eV     2   --> B_1  D_3  S_3  
     e( 23 - 24) =     38.55699  eV     2   --> A_1  D_1  S_1  
     e( 23 - 24) =     38.55699  eV     2   --> B_1  D_3  S_3  
     e( 25 - 26) =     40.77903  eV     2   --> A_2  D_2  S_2  
     e( 25 - 26) =     40.77903  eV     2   --> B_2  D_4  S_4  
     e( 27 - 28) =     44.80034  eV     2   --> A_2  D_2  S_2  
     e( 27 - 28) =     44.80034  eV     2   --> B_2  D_4  S_4  
     e( 29 - 30) =     48.65236  eV     2   --> A_1  D_1  S_1  
     e( 29 - 30) =     48.65236  eV     2   --> B_1  D_3  S_3  
     e( 31 - 32) =     54.08554  eV     2   --> A_1  D_1  S_1  
     e( 31 - 32) =     54.08554  eV     2   --> B_1  D_3  S_3  

 **************************************************************************

 **************************************************************************

                    xk=(  -0.46667,   0.00000,   0.50000  )

     Band symmetry, C_2v (mm2)  point group:

     e(  1 -  1) =    -67.84235  eV     1   --> A_1  D_1  S_1  
     e(  2 -  2) =    -67.84211  eV     1   --> B_1  D_3  S_3  
     e(  3 -  4) =    -34.34044  eV     2   --> A_1  D_1  S_1  
     e(  3 -  4) =    -34.34044  eV     2   --> B_1  D_3  S_3  
     e(  5 -  5) =    -33.97905  eV     1   --> B_2  D_4  S_4  
     e(  6 -  6) =    -33.97883  eV     1   --> A_2  D_2  S_2  
     e(  7 -  8) =    -33.80123  eV     2   --> A_1  D_1  S_1  
     e(  7 -  8) =    -33.80123  eV     2   --> B_1  D_3  S_3  
     e(  9 - 10) =     14.51183  eV     2   --> A_1  D_1  S_1  
     e(  9 - 10) =     14.51183  eV     2   --> B_1  D_3  S_3  
     e( 11 - 12) =     16.23980  eV     2   --> A_2  D_2  S_2  
     e( 11 - 12) =     16.23980  eV     2   --> B_2  D_4  S_4  
     e( 13 - 14) =     18.95087  eV     2   --> A_1  D_1  S_1  
     e( 13 - 14) =     18.95087  eV     2   --> B_1  D_3  S_3  
     e( 15 - 15) =     19.04474  eV     1   --> A_1  D_1  S_1  
     e( 16 - 16) =     19.04492  eV     1   --> B_1  D_3  S_3  
     e( 17 - 18) =     20.31869  eV     2   --> A_1  D_1  S_1  
     e( 17 - 18) =     20.31869  eV     2   --> B_1  D_3  S_3  
     e( 19 - 20) =     20.53282  eV     2   --> A_2  D_2  S_2  
     e( 19 - 20) =     20.53282  eV     2   --> B_2  D_4  S_4  
     e( 21 - 22) =     28.01710  eV     2   --> A_1  D_1  S_1  
     e( 21 - 22) =     28.01710  eV     2   --> B_1  D_3  S_3  
     e( 23 - 24) =     38.53123  eV     2   --> A_1  D_1  S_1  
     e( 23 - 24) =     38.53123  eV     2   --> B_1  D_3  S_3  
     e( 25 - 26) =     41.00455  eV     2   --> A_2  D_2  S_2  
     e( 25 - 26) =     41.00455  eV     2   --> B_2  D_4  S_4  
     e( 27 - 28) =     44.48023  eV     2   --> A_2  D_2  S_2  
     e( 27 - 28) =     44.48023  eV     2   --> B_2  D_4  S_4  
     e( 29 - 30) =     48.56840  eV     2   --> A_1  D_1  S_1  
     e( 29 - 30) =     48.56840  eV     2   --> B_1  D_3  S_3  
     e( 31 - 32) =     54.66021  eV     2   --> A_1  D_1  S_1  
     e( 31 - 32) =     54.66021  eV     2   --> B_1  D_3  S_3  

 **************************************************************************

 **************************************************************************

                    xk=(  -0.50000,   0.00000,   0.50000  )

     point group D_4h(4/mmm)
     there are 10 classes
     the character table:

       E     2C4   C2    2C2'  2C2'' i     2S4   s_h   2s_v  2s_d 
A_1g   1.00  1.00  1.00  1.00  1.00  1.00  1.00  1.00  1.00  1.00
A_2g   1.00  1.00  1.00 -1.00 -1.00  1.00  1.00  1.00 -1.00 -1.00
B_1g   1.00 -1.00  1.00  1.00 -1.00  1.00 -1.00  1.00  1.00 -1.00
B_2g   1.00 -1.00  1.00 -1.00  1.00  1.00 -1.00  1.00 -1.00  1.00
E_g    2.00  0.00 -2.00  0.00  0.00  2.00  0.00 -2.00  0.00  0.00
A_1u   1.00  1.00  1.00  1.00  1.00 -1.00 -1.00 -1.00 -1.00 -1.00
A_2u   1.00  1.00  1.00 -1.00 -1.00 -1.00 -1.00 -1.00  1.00  1.00
B_1u   1.00 -1.00  1.00  1.00 -1.00 -1.00  1.00 -1.00 -1.00  1.00
B_2u   1.00 -1.00  1.00 -1.00  1.00 -1.00  1.00 -1.00  1.00 -1.00
E_u    2.00  0.00 -2.00  0.00  0.00 -2.00  0.00  2.00  0.00  0.00

     the symmetry operations in each class and the name of the first element:

     E        1
                                                                 
     2C4      7    8
                                                                 
     C2       3
                                                                 
     2C2'     2    4
                                                                 
     2C2''    5    6
                                                                 
     i        9
                                                                 
     2S4     15   16
                                                                 
     s_h     11
                                                                 
     2s_v    10   12
                                                                 
     2s_d    13   14
                                                                 

     Band symmetry, D_4h(4/mmm) point group:

     e(  1 -  1) =    -67.84211  eV     1   --> A_1g X_1  M_1  
     e(  2 -  2) =    -67.84187  eV     1   --> B_2g X_3  M_3  
     e(  3 -  4) =    -34.34211  eV     2   --> E_u  X_5' M_5' 
     e(  5 -  5) =    -33.97890  eV     1   --> A_2u X_4' M_4' 
[...]
     e( 29 - 30) =     48.88999  eV     2   --> A_1  D_1  S_1  
     e( 29 - 30) =     48.88999  eV     2   --> B_1  D_3  S_3  
     e( 31 - 32) =     56.97860  eV     2   --> A_2  D_2  S_2  
     e( 31 - 32) =     56.97860  eV     2   --> B_2  D_4  S_4  

 **************************************************************************

 **************************************************************************

                    xk=(  -0.17500,   0.17500,   0.50000  )

     Band symmetry, C_2v (mm2)  point group:

     e(  1 -  1) =    -67.84599  eV     1   --> A_1  D_1  S_1  
     e(  2 -  2) =    -67.84576  eV     1   --> B_1  D_3  S_3  
     e(  3 -  4) =    -34.21671  eV     2   --> A_1  D_1  S_1  
     e(  3 -  4) =    -34.21671  eV     2   --> B_1  D_3  S_3  
     e(  5 -  5) =    -34.00861  eV     1   --> B_2  D_4  S_4  
     e(  6 -  6) =    -34.00838  eV     1   --> A_2  D_2  S_2  
     e(  7 -  8) =    -33.86750  eV     2   --> A_1  D_1  S_1  
     e(  7 -  8) =    -33.86750  eV     2   --> B_1  D_3  S_3  
     e(  9 - 10) =     15.23195  eV     2   --> A_1  D_1  S_1  
     e(  9 - 10) =     15.23195  eV     2   --> B_1  D_3  S_3  
     e( 11 - 12) =     16.36029  eV     2   --> A_2  D_2  S_2  
     e( 11 - 12) =     16.36029  eV     2   --> B_2  D_4  S_4  
     e( 13 - 14) =     17.15843  eV     2   --> A_1  D_1  S_1  
     e( 13 - 14) =     17.15843  eV     2   --> B_1  D_3  S_3  
     e( 15 - 16) =     18.53638  eV     2   --> A_2  D_2  S_2  
     e( 15 - 16) =     18.53638  eV     2   --> B_2  D_4  S_4  
     e( 17 - 17) =     19.46826  eV     1   --> A_1  D_1  S_1  
     e( 18 - 18) =     19.46838  eV     1   --> B_1  D_3  S_3  
     e( 19 - 20) =     21.28416  eV     2   --> A_1  D_1  S_1  
     e( 19 - 20) =     21.28416  eV     2   --> B_1  D_3  S_3  
     e( 21 - 22) =     33.14584  eV     2   --> A_2  D_2  S_2  
     e( 21 - 22) =     33.14584  eV     2   --> B_2  D_4  S_4  
     e( 23 - 24) =     34.00875  eV     2   --> A_1  D_1  S_1  
     e( 23 - 24) =     34.00875  eV     2   --> B_1  D_3  S_3  
     e( 25 - 26) =     43.44109  eV     2   --> A_1  D_1  S_1  
     e( 25 - 26) =     43.44109  eV     2   --> B_1  D_3  S_3  
     e( 27 - 28) =     43.96272  eV     2   --> A_2  D_2  S_2  
     e( 27 - 28) =     43.96272  eV     2   --> B_2  D_4  S_4  
     e( 29 - 30) =     48.41779  eV     2   --> A_1  D_1  S_1  
     e( 29 - 30) =     48.41779  eV     2   --> B_1  D_3  S_3  
     e( 31 - 32) =     56.56369  eV     2   --> A_2  D_2  S_2  
     e( 31 - 32) =     56.56369  eV     2   --> B_2  D_4  S_4  

 **************************************************************************

 **************************************************************************

                    xk=(  -0.15000,   0.15000,   0.50000  )

     Band symmetry, C_2v (mm2)  point group:

     e(  1 -  1) =    -67.84705  eV     1   --> A_1  D_1  S_1  
     e(  2 -  2) =    -67.84682  eV     1   --> B_1  D_3  S_3  
     e(  3 -  4) =    -34.20011  eV     2   --> A_1  D_1  S_1  
     e(  3 -  4) =    -34.20011  eV     2   --> B_1  D_3  S_3  
     e(  5 -  5) =    -34.00332  eV     1   --> B_2  D_4  S_4  
     e(  6 -  6) =    -34.00310  eV     1   --> A_2  D_2  S_2  
     e(  7 -  8) =    -33.88024  eV     2   --> A_1  D_1  S_1  
     e(  7 -  8) =    -33.88024  eV     2   --> B_1  D_3  S_3  
     e(  9 - 10) =     15.14411  eV     2   --> A_1  D_1  S_1  
     e(  9 - 10) =     15.14411  eV     2   --> B_1  D_3  S_3  
     e( 11 - 12) =     16.40783  eV     2   --> A_2  D_2  S_2  
     e( 11 - 12) =     16.40783  eV     2   --> B_2  D_4  S_4  
     e( 13 - 14) =     17.24964  eV     2   --> A_1  D_1  S_1  
     e( 13 - 14) =     17.24964  eV     2   --> B_1  D_3  S_3  
     e( 15 - 16) =     18.42466  eV     2   --> A_2  D_2  S_2  
     e( 15 - 16) =     18.42466  eV     2   --> B_2  D_4  S_4  
     e( 17 - 17) =     19.46954  eV     1   --> A_1  D_1  S_1  
     e( 18 - 18) =     19.46965  eV     1   --> B_1  D_3  S_3  
     e( 19 - 20) =     20.96056  eV     2   --> A_1  D_1  S_1  
     e( 19 - 20) =     20.96056  eV     2   --> B_1  D_3  S_3  
     e( 21 - 22) =     33.74642  eV     2   --> A_2  D_2  S_2  
     e( 21 - 22) =     33.74642  eV     2   --> B_2  D_4  S_4  
     e( 23 - 24) =     34.57680  eV     2   --> A_1  D_1  S_1  
     e( 23 - 24) =     34.57680  eV     2   --> B_1  D_3  S_3  
     e( 25 - 26) =     43.01600  eV     2   --> A_2  D_2  S_2  
     e( 25 - 26) =     43.01600  eV     2   --> B_2  D_4  S_4  
     e( 27 - 28) =     43.75953  eV     2   --> A_1  D_1  S_1  
     e( 27 - 28) =     43.75953  eV     2   --> B_1  D_3  S_3  
     e( 29 - 30) =     48.46054  eV     2   --> A_1  D_1  S_1  
     e( 29 - 30) =     48.46054  eV     2   --> B_1  D_3  S_3  
     e( 31 - 32) =     56.18439  eV     2   --> A_2  D_2  S_2  
     e( 31 - 32) =     56.18439  eV     2   --> B_2  D_4  S_4  

 **************************************************************************

 **************************************************************************

                    xk=(  -0.12500,   0.12500,   0.50000  )

     Band symmetry, C_2v (mm2)  point group:

     e(  1 -  1) =    -67.84805  eV     1   --> A_1  D_1  S_1  
     e(  2 -  2) =    -67.84782  eV     1   --> B_1  D_3  S_3  
     e(  3 -  4) =    -34.18030  eV     2   --> A_1  D_1  S_1  
     e(  3 -  4) =    -34.18030  eV     2   --> B_1  D_3  S_3  
     e(  5 -  5) =    -33.99870  eV     1   --> B_2  D_4  S_4  
     e(  6 -  6) =    -33.99847  eV     1   --> A_2  D_2  S_2  
     e(  7 -  8) =    -33.89684  eV     2   --> A_1  D_1  S_1  
     e(  7 -  8) =    -33.89684  eV     2   --> B_1  D_3  S_3  
     e(  9 - 10) =     15.06173  eV     2   --> A_1  D_1  S_1  
     e(  9 - 10) =     15.06173  eV     2   --> B_1  D_3  S_3  
     e( 11 - 12) =     16.46239  eV     2   --> A_2  D_2  S_2  
     e( 11 - 12) =     16.46239  eV     2   --> B_2  D_4  S_4  
     e( 13 - 14) =     17.36174  eV     2   --> A_1  D_1  S_1  
     e( 13 - 14) =     17.36174  eV     2   --> B_1  D_3  S_3  
     e( 15 - 16) =     18.31250  eV     2   --> A_2  D_2  S_2  
     e( 15 - 16) =     18.31250  eV     2   --> B_2  D_4  S_4  
     e( 17 - 17) =     19.42781  eV     1   -->   ?
     e( 18 - 18) =     19.42791  eV     1   -->   ?
     e( 19 - 20) =     20.70043  eV     2   --> A_1  D_1  S_1  
     e( 19 - 20) =     20.70043  eV     2   --> B_1  D_3  S_3  
     e( 21 - 22) =     34.37728  eV     2   --> A_2  D_2  S_2  
     e( 21 - 22) =     34.37728  eV     2   --> B_2  D_4  S_4  
     e( 23 - 24) =     35.18282  eV     2   --> A_1  D_1  S_1  
     e( 23 - 24) =     35.18282  eV     2   --> B_1  D_3  S_3  
     e( 25 - 26) =     42.10048  eV     2   --> A_2  D_2  S_2  
     e( 25 - 26) =     42.10048  eV     2   --> B_2  D_4  S_4  
     e( 27 - 28) =     43.51342  eV     2   --> A_1  D_1  S_1  
     e( 27 - 28) =     43.51342  eV     2   --> B_1  D_3  S_3  
     e( 29 - 30) =     49.10127  eV     2   --> A_1  D_1  S_1  
     e( 29 - 30) =     49.10127  eV     2   --> B_1  D_3  S_3  
     e( 31 - 32) =     55.84948  eV     2   --> A_2  D_2  S_2  
     e( 31 - 32) =     55.84948  eV     2   --> B_2  D_4  S_4  

 **************************************************************************

 **************************************************************************

                    xk=(  -0.10000,   0.10000,   0.50000  )

     Band symmetry, C_2v (mm2)  point group:

     e(  1 -  1) =    -67.84880  eV     1   --> A_1  D_1  S_1  
     e(  2 -  2) =    -67.84856  eV     1   --> B_1  D_3  S_3  
     e(  3 -  4) =    -34.15792  eV     2   --> A_1  D_1  S_1  
     e(  3 -  4) =    -34.15792  eV     2   --> B_1  D_3  S_3  
     e(  5 -  5) =    -33.99458  eV     1   --> B_2  D_4  S_4  
     e(  6 -  6) =    -33.99436  eV     1   --> A_2  D_2  S_2  
     e(  7 -  8) =    -33.91626  eV     2   --> A_1  D_1  S_1  
     e(  7 -  8) =    -33.91626  eV     2   --> B_1  D_3  S_3  
     e(  9 - 10) =     14.98873  eV     2   --> A_1  D_1  S_1  
     e(  9 - 10) =     14.98873  eV     2   --> B_1  D_3  S_3  
     e( 11 - 12) =     16.52065  eV     2   --> A_2  D_2  S_2  
     e( 11 - 12) =     16.52065  eV     2   --> B_2  D_4  S_4  
     e( 13 - 14) =     17.49249  eV     2   --> A_1  D_1  S_1  
     e( 13 - 14) =     17.49249  eV     2   --> B_1  D_3  S_3  
     e( 15 - 15) =     18.20483  eV     1   -->   ?
     e( 16 - 16) =     18.20493  eV     1   -->   ?
     e( 17 - 18) =     19.33090  eV     2   --> A_1  D_1  S_1  
     e( 17 - 18) =     19.33090  eV     2   --> B_1  D_3  S_3  
     e( 19 - 19) =     20.51558  eV     1   -->   ?
     e( 20 - 20) =     20.51571  eV     1   -->   ?
     e( 21 - 22) =     35.03652  eV     2   --> A_2  D_2  S_2  
     e( 21 - 22) =     35.03652  eV     2   --> B_2  D_4  S_4  
     e( 23 - 24) =     35.82074  eV     2   --> A_1  D_1  S_1  
     e( 23 - 24) =     35.82074  eV     2   --> B_1  D_3  S_3  
     e( 25 - 26) =     41.21442  eV     2   --> A_2  D_2  S_2  
     e( 25 - 26) =     41.21442  eV     2   --> B_2  D_4  S_4  
     e( 27 - 28) =     42.92176  eV     2   --> A_1  D_1  S_1  
     e( 27 - 28) =     42.92176  eV     2   --> B_1  D_3  S_3  
     e( 29 - 30) =     50.12668  eV     2   --> A_1  D_1  S_1  
     e( 29 - 30) =     50.12668  eV     2   --> B_1  D_3  S_3  
     e( 31 - 32) =     55.56658  eV     2   --> A_2  D_2  S_2  
     e( 31 - 32) =     55.56658  eV     2   --> B_2  D_4  S_4  

 **************************************************************************

 **************************************************************************

                    xk=(  -0.07500,   0.07500,   0.50000  )

     Band symmetry, C_2v (mm2)  point group:

     e(  1 -  1) =    -67.84949  eV     1   --> A_1  D_1  S_1  
     e(  2 -  2) =    -67.84925  eV     1   --> B_1  D_3  S_3  
     e(  3 -  3) =    -34.13421  eV     1   --> B_1  D_3  S_3  
     e(  4 -  4) =    -34.13411  eV     1   --> A_1  D_1  S_1  
     e(  5 -  5) =    -33.99135  eV     1   --> B_2  D_4  S_4  
     e(  6 -  6) =    -33.99112  eV     1   --> A_2  D_2  S_2  
     e(  7 -  7) =    -33.93787  eV     1   --> A_1  D_1  S_1  
     e(  8 -  8) =    -33.93776  eV     1   --> B_1  D_3  S_3  
     e(  9 - 10) =     14.92809  eV     2   --> A_1  D_1  S_1  
     e(  9 - 10) =     14.92809  eV     2   --> B_1  D_3  S_3  
     e( 11 - 11) =     16.57773  eV     1   -->   ?
     e( 12 - 12) =     16.57785  eV     1   -->   ?
     e( 13 - 14) =     17.63659  eV     2   --> A_1  D_1  S_1  
     e( 13 - 14) =     17.63659  eV     2   --> B_1  D_3  S_3  
     e( 15 - 15) =     18.10782  eV     1   -->   ?
     e( 16 - 16) =     18.10795  eV     1   -->   ?
     e( 17 - 17) =     19.18425  eV     1   -->   ?
     e( 18 - 18) =     19.18435  eV     1   -->   ?
     e( 19 - 19) =     20.40327  eV     1   -->   ?
     e( 20 - 20) =     20.40341  eV     1   -->   ?
     e( 21 - 22) =     35.72234  eV     2   --> A_2  D_2  S_2  
     e( 21 - 22) =     35.72234  eV     2   --> B_2  D_4  S_4  
     e( 23 - 24) =     36.47452  eV     2   --> A_1  D_1  S_1  
     e( 23 - 24) =     36.47452  eV     2   --> B_1  D_3  S_3  
     e( 25 - 26) =     40.35588  eV     2   --> A_2  D_2  S_2  
     e( 25 - 26) =     40.35588  eV     2   --> B_2  D_4  S_4  
     e( 27 - 28) =     42.19878  eV     2   --> A_1  D_1  S_1  
     e( 27 - 28) =     42.19878  eV     2   --> B_1  D_3  S_3  
     e( 29 - 30) =     51.32775  eV     2   --> A_1  D_1  S_1  
     e( 29 - 30) =     51.32775  eV     2   --> B_1  D_3  S_3  
     e( 31 - 32) =     55.34096  eV     2   --> A_2  D_2  S_2  
     e( 31 - 32) =     55.34096  eV     2   --> B_2  D_4  S_4  

 **************************************************************************

 **************************************************************************

                    xk=(  -0.05000,   0.05000,   0.50000  )

     Band symmetry, C_2v (mm2)  point group:

     e(  1 -  1) =    -67.85001  eV     1   --> A_1  D_1  S_1  
     e(  2 -  2) =    -67.84977  eV     1   --> B_1  D_3  S_3  
     e(  3 -  3) =    -34.11069  eV     1   --> B_1  D_3  S_3  
     e(  4 -  4) =    -34.11055  eV     1   --> A_1  D_1  S_1  
     e(  5 -  5) =    -33.98904  eV     1   --> B_2  D_4  S_4  
     e(  6 -  6) =    -33.98882  eV     1   --> A_2  D_2  S_2  
     e(  7 -  7) =    -33.95985  eV     1   --> A_1  D_1  S_1  
     e(  8 -  8) =    -33.95971  eV     1   --> B_1  D_3  S_3  
     e(  9 - 10) =     14.88270  eV     2   --> A_1  D_1  S_1  
     e(  9 - 10) =     14.88270  eV     2   --> B_1  D_3  S_3  
     e( 11 - 11) =     16.62717  eV     1   -->   ?
     e( 12 - 12) =     16.62731  eV     1   -->   ?
     e( 13 - 14) =     17.78278  eV     2   --> A_1  D_1  S_1  
     e( 13 - 14) =     17.78278  eV     2   --> B_1  D_3  S_3  
     e( 15 - 15) =     18.02905  eV     1   --> A_2  D_2  S_2  
     e( 16 - 16) =     18.02920  eV     1   --> B_2  D_4  S_4  
     e( 17 - 17) =     19.01634  eV     1   -->   ?
     e( 18 - 18) =     19.01647  eV     1   -->   ?
     e( 19 - 19) =     20.34439  eV     1   -->   ?
     e( 20 - 20) =     20.34455  eV     1   -->   ?
     e( 21 - 22) =     36.43355  eV     2   --> A_2  D_2  S_2  
     e( 21 - 22) =     36.43355  eV     2   --> B_2  D_4  S_4  
     e( 23 - 24) =     37.11036  eV     2   --> A_1  D_1  S_1  
     e( 23 - 24) =     37.11036  eV     2   --> B_1  D_3  S_3  
     e( 25 - 26) =     39.52333  eV     2   --> A_2  D_2  S_2  
     e( 25 - 26) =     39.52333  eV     2   --> B_2  D_4  S_4  
     e( 27 - 28) =     41.47547  eV     2   --> A_1  D_1  S_1  
     e( 27 - 28) =     41.47547  eV     2   --> B_1  D_3  S_3  
     e( 29 - 30) =     52.59089  eV     2   --> A_1  D_1  S_1  
     e( 29 - 30) =     52.59089  eV     2   --> B_1  D_3  S_3  
     e( 31 - 32) =     55.17678  eV     2   --> A_2  D_2  S_2  
     e( 31 - 32) =     55.17678  eV     2   --> B_2  D_4  S_4  

 **************************************************************************

 **************************************************************************

                    xk=(  -0.02500,   0.02500,   0.50000  )

     Band symmetry, C_2v (mm2)  point group:

     e(  1 -  1) =    -67.85030  eV     1   --> A_1  D_1  S_1  
     e(  2 -  2) =    -67.85006  eV     1   --> B_1  D_3  S_3  
     e(  3 -  3) =    -34.09090  eV     1   --> B_1  D_3  S_3  
     e(  4 -  4) =    -34.09071  eV     1   --> A_1  D_1  S_1  
     e(  5 -  5) =    -33.98759  eV     1   --> B_2  D_4  S_4  
     e(  6 -  6) =    -33.98737  eV     1   --> A_2  D_2  S_2  
     e(  7 -  7) =    -33.97871  eV     1   --> A_1  D_1  S_1  
     e(  8 -  8) =    -33.97852  eV     1   --> B_1  D_3  S_3  
     e(  9 - 10) =     14.85464  eV     2   --> A_1  D_1  S_1  
     e(  9 - 10) =     14.85464  eV     2   --> B_1  D_3  S_3  
     e( 11 - 11) =     16.66137  eV     1   -->   ?
     e( 12 - 12) =     16.66153  eV     1   -->   ?
     e( 13 - 13) =     17.90603  eV     1   --> B_1  D_3  S_3  
     e( 14 - 14) =     17.90618  eV     1   --> A_1  D_1  S_1  
     e( 15 - 15) =     17.97690  eV     1   --> A_2  D_2  S_2  
     e( 16 - 16) =     17.97707  eV     1   --> B_2  D_4  S_4  
     e( 17 - 17) =     18.87193  eV     1   -->   ?
     e( 18 - 18) =     18.87210  eV     1   -->   ?
     e( 19 - 19) =     20.31774  eV     1   -->   ?
     e( 20 - 20) =     20.31789  eV     1   -->   ?
     e( 21 - 22) =     37.16857  eV     2   --> A_2  D_2  S_2  
     e( 21 - 22) =     37.16857  eV     2   --> B_2  D_4  S_4  
     e( 23 - 24) =     37.64322  eV     2   --> A_1  D_1  S_1  
     e( 23 - 24) =     37.64322  eV     2   --> B_1  D_3  S_3  
     e( 25 - 26) =     38.71640  eV     2   --> A_2  D_2  S_2  
     e( 25 - 26) =     38.71640  eV     2   --> B_2  D_4  S_4  
     e( 27 - 28) =     40.87869  eV     2   --> A_1  D_1  S_1  
     e( 27 - 28) =     40.87869  eV     2   --> B_1  D_3  S_3  
     e( 29 - 30) =     53.84117  eV     2   --> A_1  D_1  S_1  
     e( 29 - 30) =     53.84117  eV     2   --> B_1  D_3  S_3  
     e( 31 - 32) =     55.07717  eV     2   --> A_2  D_2  S_2  
     e( 31 - 32) =     55.07717  eV     2   --> B_2  D_4  S_4  

 **************************************************************************

 **************************************************************************

                    xk=(   0.00000,   0.00000,   0.50000  )

     point group D_4h(4/mmm)
     there are 10 classes
     the character table:

       E     2C4   C2    2C2'  2C2'' i     2S4   s_h   2s_v  2s_d 
A_1g   1.00  1.00  1.00  1.00  1.00  1.00  1.00  1.00  1.00  1.00
A_2g   1.00  1.00  1.00 -1.00 -1.00  1.00  1.00  1.00 -1.00 -1.00
B_1g   1.00 -1.00  1.00  1.00 -1.00  1.00 -1.00  1.00  1.00 -1.00
B_2g   1.00 -1.00  1.00 -1.00  1.00  1.00 -1.00  1.00 -1.00  1.00
E_g    2.00  0.00 -2.00  0.00  0.00  2.00  0.00 -2.00  0.00  0.00
A_1u   1.00  1.00  1.00  1.00  1.00 -1.00 -1.00 -1.00 -1.00 -1.00
A_2u   1.00  1.00  1.00 -1.00 -1.00 -1.00 -1.00 -1.00  1.00  1.00
B_1u   1.00 -1.00  1.00  1.00 -1.00 -1.00  1.00 -1.00 -1.00  1.00
B_2u   1.00 -1.00  1.00 -1.00  1.00 -1.00  1.00 -1.00  1.00 -1.00
E_u    2.00  0.00 -2.00  0.00  0.00 -2.00  0.00  2.00  0.00  0.00

     the symmetry operations in each class and the name of the first element:

     E        1
                                                                 
     2C4      7    8
                                                                 
     C2       2
                                                                 
     2C2'     3    4
                                                                 
     2C2''    5    6
                                                                 
     i        9
                                                                 
     2S4     15   16
                                                                 
     s_h     10
                                                                 
     2s_v    11   12
                                                                 
     2s_d    13   14
                                                                 

     Band symmetry, D_4h(4/mmm) point group:

     e(  1 -  1) =    -67.85051  eV     1   --> A_1g X_1  M_1  
     e(  2 -  2) =    -67.85028  eV     1   --> A_2u X_4' M_4' 
     e(  3 -  3) =    -34.08240  eV     1   --> A_2u X_4' M_4' 
     e(  4 -  4) =    -34.08218  eV     1   --> A_1g X_1  M_1  
     e(  5 -  6) =    -33.98720  eV     2   --> E_u  X_5' M_5' 
     e(  7 -  8) =    -33.98697  eV     2   --> E_g  X_5  M_5  
     e(  9 - 10) =     14.84507  eV     2   --> A_1g X_1  M_1  
     e(  9 - 10) =     14.84507  eV     2   --> A_2u X_4' M_4' 
     e( 11 - 11) =     16.67369  eV     1   -->   ?
     e( 12 - 12) =     16.67386  eV     1   -->   ?
     e( 13 - 14) =     17.95855  eV     2   --> E_g  X_5  M_5  
     e( 15 - 16) =     17.95872  eV     2   --> E_u  X_5' M_5' 
     e( 17 - 17) =     18.81107  eV     1   -->   ?
     e( 18 - 18) =     18.81126  eV     1   -->   ?
     e( 19 - 19) =     20.31017  eV     1   -->   ?
     e( 20 - 20) =     20.31033  eV     1   -->   ?
     e( 21 - 24) =     37.87502  eV     4   --> E_g  X_5  M_5  
     e( 21 - 24) =     37.87502  eV     4   --> E_u  X_5' M_5' 
     e( 25 - 26) =     37.98606  eV     2   --> B_1g X_2  M_2  
     e( 25 - 26) =     37.98606  eV     2   --> B_2u X_3' M_3' 
     e( 27 - 28) =     40.62306  eV     2   --> A_1g X_1  M_1  
     e( 27 - 28) =     40.62306  eV     2   --> A_2u X_4' M_4' 
     e( 29 - 30) =     54.95415  eV     2   --> B_2g X_3  M_3  
     e( 29 - 30) =     54.95415  eV     2   --> B_1u X_2' M_2' 

 **************************************************************************

     BANDS        :     17.22s CPU     18.48s WALL


   This run was terminated on:   7:32:27   1Jan2025            

=------------------------------------------------------------------------------=
   JOB DONE.
=------------------------------------------------------------------------------=
