
     Program PWSCF v.7.3.1 starts on  1Jan2025 at  7:28:42 

     This program is part of the open-source Quantum ESPRESSO suite
     for quantum simulation of materials; please cite
         "P. Giannozzi et al., J. Phys.:Condens. Matter 21 395502 (2009);
         "P. Giannozzi et al., J. Phys.:Condens. Matter 29 465901 (2017);
         "P. Giannozzi et al., J. Chem. Phys. 152 154105 (2020);
          URL http://www.quantum-espresso.org", 
     in publications or presentations arising from this work. More details at
     http://www.quantum-espresso.org/quote

     Parallel version (MPI), running on     6 processors

     MPI processes distributed on     1 nodes
     1862 MiB available memory on the printing compute node when the environment starts

     Reading input from scf.in
Warning: card  &CELL ignored
Warning: card    CELL_DOFREE     = 'IBRAV' ignored
Warning: card  / ignored

     Current dimensions of program PWSCF are:
     Max number of different atomic species (ntypx) = 10
     Max number of k-points (npk) =  40000
     Max angular momentum in pseudopotentials (lmaxx) =  4
     file Fe.pbesol-spn-kjpaw_psl.1.0.0.UPF: wavefunction(s)  3P 3D renormalized
     file Fe.pbesol-spn-kjpaw_psl.1.0.0.UPF: wavefunction(s)  3P 3D renormalized
     Found identity + (  0.5000  0.5000  0.5000) symmetry
     This is a supercell, fractional translations are disabled

     R & G space division:  proc/nbgrp/npool/nimage =       6
     Subspace diagonalization in iterative solution of the eigenvalue problem:
     a serial algorithm will be used


     Parallelization info
     --------------------
     sticks:   dense  smooth     PW     G-vecs:    dense   smooth      PW
     Min         173      86     27                 4223     1486     262
     Max         174      87     29                 4224     1489     263
     Sum        1041     517    169                25341     8925    1575

     Using Slab Decomposition



     bravais-lattice index     =            1
     lattice parameter (alat)  =       5.2188  a.u.
     unit-cell volume          =     142.1412 (a.u.)^3
     number of atoms/cell      =            2
     number of atomic types    =            2
     number of electrons       =        32.00
     number of Kohn-Sham states=           32
     kinetic-energy cutoff     =      60.0000  Ry
     charge density cutoff     =     480.0000  Ry
     scf convergence threshold =      1.0E-10
     mixing beta               =       0.7000
     number of iterations used =            8  plain     mixing
     Exchange-correlation= SLA  PW   PSX  PSC
                           (   1   4  10   8   0   0   0)

     celldm(1)=   5.218832  celldm(2)=   0.000000  celldm(3)=   0.000000
     celldm(4)=   0.000000  celldm(5)=   0.000000  celldm(6)=   0.000000

     crystal axes: (cart. coord. in units of alat)
               a(1) = (   1.000000   0.000000   0.000000 )  
               a(2) = (   0.000000   1.000000   0.000000 )  
               a(3) = (   0.000000   0.000000   1.000000 )  

     reciprocal axes: (cart. coord. in units 2 pi/alat)
               b(1) = (  1.000000  0.000000  0.000000 )  
               b(2) = (  0.000000  1.000000  0.000000 )  
               b(3) = (  0.000000  0.000000  1.000000 )  


     PseudoPot. # 1 for Fe read from file:
     ./../../pseudos/Fe.pbesol-spn-kjpaw_psl.1.0.0.UPF
     MD5 check sum: e30d5f36a6f0cb983ee41abee56170da
     Pseudo is Projector augmented-wave + core cor, Zval = 16.0
     Generated using &quot;atomic&quot; code by A. Dal Corso  v.6.3
     Shape of augmentation charge: PSQ
     Using radial grid of 1191 points,  6 beta functions with: 
                l(1) =   0
                l(2) =   0
                l(3) =   1
                l(4) =   1
                l(5) =   2
                l(6) =   2
     Q(r) pseudized with 0 coefficients 


     PseudoPot. # 2 for Fe read from file:
     ./../../pseudos/Fe.pbesol-spn-kjpaw_psl.1.0.0.UPF
     MD5 check sum: e30d5f36a6f0cb983ee41abee56170da
     Pseudo is Projector augmented-wave + core cor, Zval = 16.0
     Generated using &quot;atomic&quot; code by A. Dal Corso  v.6.3
     Shape of augmentation charge: PSQ
     Using radial grid of 1191 points,  6 beta functions with: 
                l(1) =   0
                l(2) =   0
                l(3) =   1
                l(4) =   1
                l(5) =   2
                l(6) =   2
     Q(r) pseudized with 0 coefficients 


     atomic species   valence    mass     pseudopotential
     Fe1              16.00    55.84500     Fe( 1.00)
     Fe2              16.00    55.84500     Fe( 1.00)

     Starting magnetic structure 
     atomic species   magnetization
     Fe1             0.300
     Fe2             0.300

     48 Sym. Ops., with inversion, found



   Cartesian axes

     site n.     atom                  positions (alat units)
         1        Fe1    tau(   1) = (   0.0000000   0.0000000   0.0000000  )
         2        Fe1    tau(   2) = (   0.4999998   0.4999998   0.4999998  )

     number of k points=    56  Gaussian smearing, width (Ry)=  0.0200
                       cart. coord. in units 2pi/alat
        k(    1) = (   0.0000000   0.0000000   0.0000000), wk =   0.0007513
        k(    2) = (   0.0000000   0.0000000   0.0909091), wk =   0.0045079
        k(    3) = (   0.0000000   0.0000000   0.1818182), wk =   0.0045079
        k(    4) = (   0.0000000   0.0000000   0.2727273), wk =   0.0045079
        k(    5) = (   0.0000000   0.0000000   0.3636364), wk =   0.0045079
        k(    6) = (   0.0000000   0.0000000   0.4545455), wk =   0.0045079
        k(    7) = (   0.0000000   0.0909091   0.0909091), wk =   0.0090158
        k(    8) = (   0.0000000   0.0909091   0.1818182), wk =   0.0180316
        k(    9) = (   0.0000000   0.0909091   0.2727273), wk =   0.0180316
        k(   10) = (   0.0000000   0.0909091   0.3636364), wk =   0.0180316
        k(   11) = (   0.0000000   0.0909091   0.4545455), wk =   0.0180316
        k(   12) = (   0.0000000   0.1818182   0.1818182), wk =   0.0090158
        k(   13) = (   0.0000000   0.1818182   0.2727273), wk =   0.0180316
        k(   14) = (   0.0000000   0.1818182   0.3636364), wk =   0.0180316
        k(   15) = (   0.0000000   0.1818182   0.4545455), wk =   0.0180316
        k(   16) = (   0.0000000   0.2727273   0.2727273), wk =   0.0090158
        k(   17) = (   0.0000000   0.2727273   0.3636364), wk =   0.0180316
        k(   18) = (   0.0000000   0.2727273   0.4545455), wk =   0.0180316
        k(   19) = (   0.0000000   0.3636364   0.3636364), wk =   0.0090158
        k(   20) = (   0.0000000   0.3636364   0.4545455), wk =   0.0180316
        k(   21) = (   0.0000000   0.4545455   0.4545455), wk =   0.0090158
        k(   22) = (   0.0909091   0.0909091   0.0909091), wk =   0.0060105
        k(   23) = (   0.0909091   0.0909091   0.1818182), wk =   0.0180316
        k(   24) = (   0.0909091   0.0909091   0.2727273), wk =   0.0180316
        k(   25) = (   0.0909091   0.0909091   0.3636364), wk =   0.0180316
        k(   26) = (   0.0909091   0.0909091   0.4545455), wk =   0.0180316
        k(   27) = (   0.0909091   0.1818182   0.1818182), wk =   0.0180316
        k(   28) = (   0.0909091   0.1818182   0.2727273), wk =   0.0360631
        k(   29) = (   0.0909091   0.1818182   0.3636364), wk =   0.0360631
        k(   30) = (   0.0909091   0.1818182   0.4545455), wk =   0.0360631
        k(   31) = (   0.0909091   0.2727273   0.2727273), wk =   0.0180316
        k(   32) = (   0.0909091   0.2727273   0.3636364), wk =   0.0360631
        k(   33) = (   0.0909091   0.2727273   0.4545455), wk =   0.0360631
        k(   34) = (   0.0909091   0.3636364   0.3636364), wk =   0.0180316
        k(   35) = (   0.0909091   0.3636364   0.4545455), wk =   0.0360631
        k(   36) = (   0.0909091   0.4545455   0.4545455), wk =   0.0180316
        k(   37) = (   0.1818182   0.1818182   0.1818182), wk =   0.0060105
        k(   38) = (   0.1818182   0.1818182   0.2727273), wk =   0.0180316
        k(   39) = (   0.1818182   0.1818182   0.3636364), wk =   0.0180316
        k(   40) = (   0.1818182   0.1818182   0.4545455), wk =   0.0180316
        k(   41) = (   0.1818182   0.2727273   0.2727273), wk =   0.0180316
        k(   42) = (   0.1818182   0.2727273   0.3636364), wk =   0.0360631
        k(   43) = (   0.1818182   0.2727273   0.4545455), wk =   0.0360631
        k(   44) = (   0.1818182   0.3636364   0.3636364), wk =   0.0180316
        k(   45) = (   0.1818182   0.3636364   0.4545455), wk =   0.0360631
        k(   46) = (   0.1818182   0.4545455   0.4545455), wk =   0.0180316
        k(   47) = (   0.2727273   0.2727273   0.2727273), wk =   0.0060105
        k(   48) = (   0.2727273   0.2727273   0.3636364), wk =   0.0180316
        k(   49) = (   0.2727273   0.2727273   0.4545455), wk =   0.0180316
        k(   50) = (   0.2727273   0.3636364   0.3636364), wk =   0.0180316
        k(   51) = (   0.2727273   0.3636364   0.4545455), wk =   0.0360631
        k(   52) = (   0.2727273   0.4545455   0.4545455), wk =   0.0180316
        k(   53) = (   0.3636364   0.3636364   0.3636364), wk =   0.0060105
        k(   54) = (   0.3636364   0.3636364   0.4545455), wk =   0.0180316
        k(   55) = (   0.3636364   0.4545455   0.4545455), wk =   0.0180316
        k(   56) = (   0.4545455   0.4545455   0.4545455), wk =   0.0060105

     Dense  grid:    25341 G-vectors     FFT dimensions: (  40,  40,  40)

     Smooth grid:     8925 G-vectors     FFT dimensions: (  25,  25,  25)

     Estimated max dynamical RAM per process >      30.41 MB

     Estimated total dynamical RAM >     182.45 MB

     Check: negative core charge=   -0.000003
     Generating pointlists ...
     new r_m :   0.3572 (alat units)  1.8644 (a.u.) for type    1
     new r_m :   0.4125 (alat units)  2.1528 (a.u.) for type    2

     Initial potential from superposition of free atoms

     starting charge      31.9992, renormalised to      32.0000
     Starting wfcs are   20 randomized atomic wfcs +   12 random wfcs
     Checking if some PAW data can be deallocated... 

     total cpu time spent up to now is        1.5 secs

     Self-consistent Calculation

     iteration #  1     ecut=    60.00 Ry     beta= 0.70
     Davidson diagonalization with overlap
     ethr =  1.00E-02,  avg # of iterations =  6.0

     Threshold (ethr) on eigenvalues was too large:
     Diagonalizing with lowered threshold

     Davidson diagonalization with overlap
     ethr =  7.62E-04,  avg # of iterations =  1.1

     negative rho (up, down):  0.000E+00 1.341E-04

     total cpu time spent up to now is        7.5 secs

     total energy              =    -653.74150402 Ry
     estimated scf accuracy    <       0.24395987 Ry

     total magnetization       =     5.54 Bohr mag/cell
     absolute magnetization    =     5.60 Bohr mag/cell

     iteration #  2     ecut=    60.00 Ry     beta= 0.70
     Davidson diagonalization with overlap
     ethr =  7.62E-04,  avg # of iterations =  1.2

     negative rho (up, down):  0.000E+00 1.736E-04

     total cpu time spent up to now is        9.8 secs

     total energy              =    -653.75195189 Ry
     estimated scf accuracy    <       0.11124819 Ry

     total magnetization       =     5.12 Bohr mag/cell
     absolute magnetization    =     5.24 Bohr mag/cell

     iteration #  3     ecut=    60.00 Ry     beta= 0.70
     Davidson diagonalization with overlap
     ethr =  3.48E-04,  avg # of iterations =  1.9

     negative rho (up, down):  0.000E+00 3.591E-04

     total cpu time spent up to now is       12.4 secs

     total energy              =    -653.79154476 Ry
     estimated scf accuracy    <       0.11855427 Ry

     total magnetization       =     4.54 Bohr mag/cell
     absolute magnetization    =     4.71 Bohr mag/cell

     iteration #  4     ecut=    60.00 Ry     beta= 0.70
     Davidson diagonalization with overlap
     ethr =  3.48E-04,  avg # of iterations =  1.0

     negative rho (up, down):  0.000E+00 3.392E-04

     total cpu time spent up to now is       14.7 secs

     total energy              =    -653.80797695 Ry
     estimated scf accuracy    <       0.01249364 Ry

     total magnetization       =     4.23 Bohr mag/cell
     absolute magnetization    =     4.42 Bohr mag/cell

     iteration #  5     ecut=    60.00 Ry     beta= 0.70
     Davidson diagonalization with overlap
     ethr =  3.90E-05,  avg # of iterations =  1.3

     negative rho (up, down):  0.000E+00 1.302E-04

     total cpu time spent up to now is       17.3 secs

     total energy              =    -653.80913752 Ry
     estimated scf accuracy    <       0.02518164 Ry

     total magnetization       =     4.21 Bohr mag/cell
     absolute magnetization    =     4.40 Bohr mag/cell

     iteration #  6     ecut=    60.00 Ry     beta= 0.70
     Davidson diagonalization with overlap
     ethr =  3.90E-05,  avg # of iterations =  1.0

     negative rho (up, down):  0.000E+00 1.352E-04

     total cpu time spent up to now is       19.7 secs

     total energy              =    -653.81119556 Ry
     estimated scf accuracy    <       0.00010882 Ry

     total magnetization       =     4.08 Bohr mag/cell
     absolute magnetization    =     4.23 Bohr mag/cell

     iteration #  7     ecut=    60.00 Ry     beta= 0.70
     Davidson diagonalization with overlap
     ethr =  3.40E-07,  avg # of iterations =  3.2

     negative rho (up, down):  0.000E+00 1.340E-04

     total cpu time spent up to now is       23.0 secs

     total energy              =    -653.81123758 Ry
     estimated scf accuracy    <       0.00000923 Ry

     total magnetization       =     4.09 Bohr mag/cell
     absolute magnetization    =     4.25 Bohr mag/cell

     iteration #  8     ecut=    60.00 Ry     beta= 0.70
     Davidson diagonalization with overlap
     ethr =  2.88E-08,  avg # of iterations =  1.8

     negative rho (up, down):  0.000E+00 1.338E-04

     total cpu time spent up to now is       26.3 secs

     total energy              =    -653.81124027 Ry
     estimated scf accuracy    <       0.00000013 Ry

     total magnetization       =     4.09 Bohr mag/cell
     absolute magnetization    =     4.24 Bohr mag/cell

     iteration #  9     ecut=    60.00 Ry     beta= 0.70
     Davidson diagonalization with overlap
     ethr =  4.03E-10,  avg # of iterations =  2.1

     negative rho (up, down):  0.000E+00 1.337E-04

     total cpu time spent up to now is       29.4 secs

     total energy              =    -653.81124050 Ry
     estimated scf accuracy    <          7.7E-09 Ry

     total magnetization       =     4.09 Bohr mag/cell
     absolute magnetization    =     4.24 Bohr mag/cell

     iteration # 10     ecut=    60.00 Ry     beta= 0.70
     Davidson diagonalization with overlap
     ethr =  2.40E-11,  avg # of iterations =  2.0

     negative rho (up, down):  0.000E+00 1.337E-04

     total cpu time spent up to now is       32.6 secs

     total energy              =    -653.81124050 Ry
     estimated scf accuracy    <          2.1E-09 Ry

     total magnetization       =     4.09 Bohr mag/cell
     absolute magnetization    =     4.24 Bohr mag/cell

     iteration # 11     ecut=    60.00 Ry     beta= 0.70
     Davidson diagonalization with overlap
     ethr =  6.51E-12,  avg # of iterations =  1.8

     negative rho (up, down):  0.000E+00 1.337E-04

     Magnetic moment per site  (integrated on atomic sphere of radius R)
     atom   1 (R=0.357)  charge= 14.3254  magn=  2.0655
     atom   2 (R=0.357)  charge= 14.3254  magn=  2.0655

     total cpu time spent up to now is       35.6 secs

     End of self-consistent calculation

     Number of k-points >= 100: set verbosity='high' to print the bands.

     the Fermi energy is    19.9758 ev

!    total energy              =    -653.81124050 Ry
     total all-electron energy =     -5086.462659 Ry
     estimated scf accuracy    <          9.5E-11 Ry
     smearing contrib. (-TS)   =      -0.00546298 Ry
     internal energy E=F+TS    =    -653.80577752 Ry

     The total energy is F=E-TS. E is the sum of the following terms:
     one-electron contribution =    -204.89942206 Ry
     hartree contribution      =     124.52008409 Ry
     xc contribution           =     -54.95419625 Ry
     ewald contribution        =    -357.03152836 Ry
     one-center paw contrib.   =    -161.44071494 Ry

     total magnetization       =     4.09 Bohr mag/cell
     absolute magnetization    =     4.24 Bohr mag/cell

     convergence has been achieved in  11 iterations

     Writing all to output data dir ./temp/fe.save/ :
     XML data file, charge density, pseudopotentials, collected wavefunctions

     init_run     :      1.16s CPU      1.23s WALL (       1 calls)
     electrons    :     33.35s CPU     34.12s WALL (       1 calls)

     Called by init_run:
     wfcinit      :      0.56s CPU      0.58s WALL (       1 calls)
     potinit      :      0.21s CPU      0.24s WALL (       1 calls)
     hinit0       :      0.31s CPU      0.32s WALL (       1 calls)

     Called by electrons:
     c_bands      :     26.66s CPU     27.24s WALL (      12 calls)
     sum_band     :      3.70s CPU      3.82s WALL (      12 calls)
     v_of_rho     :      0.19s CPU      0.20s WALL (      12 calls)
     newd         :      0.78s CPU      0.80s WALL (      12 calls)
     PAW_pot      :      2.17s CPU      2.26s WALL (      12 calls)
     mix_rho      :      0.02s CPU      0.02s WALL (      12 calls)

     Called by c_bands:
     init_us_2    :      0.34s CPU      0.35s WALL (    2800 calls)
     cegterg      :     25.81s CPU     26.37s WALL (    1344 calls)

     Called by *egterg:
     cdiaghg      :      5.39s CPU      5.43s WALL (    3975 calls)
     h_psi        :      9.84s CPU     10.22s WALL (    4199 calls)
     s_psi        :      1.43s CPU      1.45s WALL (    4199 calls)
     g_psi        :      0.04s CPU      0.04s WALL (    2743 calls)

     Called by h_psi:
     h_psi:calbec :      1.74s CPU      1.83s WALL (    4199 calls)
     vloc_psi     :      6.49s CPU      6.73s WALL (    4199 calls)
     add_vuspsi   :      1.44s CPU      1.48s WALL (    4199 calls)

     General routines
     calbec       :      2.40s CPU      2.53s WALL (    5543 calls)
     fft          :      0.24s CPU      0.24s WALL (     296 calls)
     ffts         :      0.04s CPU      0.04s WALL (      48 calls)
     fftw         :      6.37s CPU      6.60s WALL (  240694 calls)
     interpolate  :      0.04s CPU      0.04s WALL (      24 calls)

     Parallel routines

     PWSCF        :     34.82s CPU     35.72s WALL


   This run was terminated on:   7:29:18   1Jan2025            

=------------------------------------------------------------------------------=
   JOB DONE.
=------------------------------------------------------------------------------=
