 INFO
nunit      1    1    1
unit   cell
celltype   primcell
shape   parapipedal
 END_INFO
 DIM-GROUP
           3           1
 PRIMVEC
    7.0103590110   -0.0452894580   -0.0131376990
    1.7329790570    3.0016081460   -0.0000000000
    1.7406629290    0.9961020430    2.8300512400
 CONVVEC
    7.0103590110   -0.0452894580   -0.0131376990
    1.7329790570    3.0016081460   -0.0000000000
    1.7406629290    0.9961020430    2.8300512400
 PRIMCOORD
           4           1
 25      5.2236148900     2.9873571360     2.1239940870    -0.0005414100     0.0003125800     0.0004782900
 25      8.7288044790     2.9647061520     2.1174211430    -0.0005438000     0.0003139700     0.0004792700
 16      3.4841284290     3.9916501410     2.8236689250     0.0005449100    -0.0003146000    -0.0004797200
 16      6.9893182880     3.9689989500     2.8170974430     0.0005403100    -0.0003119500    -0.0004778400
 CONVCOORD
           4           1
 25      5.2236148900     2.9873571360     2.1239940870
 25      8.7288044790     2.9647061520     2.1174211430
 16      3.4841284290     3.9916501410     2.8236689250
 16      6.9893182880     3.9689989500     2.8170974430
 RECIP-PRIMVEC
    0.1420067722   -0.0819876380   -0.0584858210

    0.0019238866    0.3320439898   -0.1180538819

    0.0006592256   -0.0003806040    0.3530789891

 RECIP-CONVVEC
    0.1420067722   -0.0819876380   -0.0584858210

    0.0019238866    0.3320439898   -0.1180538819

    0.0006592256   -0.0003806040    0.3530789891

 WIGNER-SEITZ-PRIMCELL
           6
  0.8999787E+00 -0.2520675E+01 -0.1791971E+01   0.5819210E+00 -0.6652232E+00 -0.4678099E+00
  0.1751668E+01 -0.1041001E+01 -0.2836620E+01   0.5819210E+00 -0.6652232E+00 -0.4678099E+00
  0.1777193E+01 -0.1026066E+01 -0.2826106E+01   0.5819210E+00 -0.6652232E+00 -0.4678099E+00
  0.2636738E+01 -0.1522325E+01 -0.1051218E+01   0.5819210E+00 -0.6652232E+00 -0.4678099E+00
  0.1785049E+01 -0.3001999E+01 -0.6569088E-02   0.5819210E+00 -0.6652232E+00 -0.4678099E+00
  0.1759524E+01 -0.3016933E+01 -0.1708317E-01   0.5819210E+00 -0.6652232E+00 -0.4678099E+00
           4
 -0.2632958E+01 -0.4809333E+00  0.1791971E+01  -0.5000000E+00 -0.8660254E+00  0.1645118E-15
 -0.3492503E+01  0.1532517E-01  0.1708317E-01  -0.5000000E+00 -0.8660254E+00  0.1645118E-15
  0.8999787E+00 -0.2520675E+01 -0.1791971E+01  -0.5000000E+00 -0.8660254E+00  0.1645118E-15
  0.1759524E+01 -0.3016933E+01 -0.1708317E-01  -0.5000000E+00 -0.8660254E+00  0.1645118E-15
           6
 -0.2640642E+01  0.1524573E+01 -0.1038081E+01  -0.5018317E+00 -0.2871754E+00 -0.8159015E+00
  0.1751840E+01 -0.1011427E+01 -0.2847134E+01  -0.5018317E+00 -0.2871754E+00 -0.8159015E+00
  0.1751668E+01 -0.1041001E+01 -0.2836620E+01  -0.5018317E+00 -0.2871754E+00 -0.8159015E+00
  0.8999787E+00 -0.2520675E+01 -0.1791971E+01  -0.5018317E+00 -0.2871754E+00 -0.8159015E+00
 -0.3492503E+01  0.1532517E-01  0.1708317E-01  -0.5018317E+00 -0.2871754E+00 -0.8159015E+00
 -0.3492331E+01  0.4489893E-01  0.6568611E-02  -0.5018317E+00 -0.2871754E+00 -0.8159015E+00
           6
 -0.1751840E+01  0.1011427E+01  0.2847134E+01   0.2215255E-02 -0.5781861E+00  0.8159019E+00
 -0.1777365E+01  0.9964926E+00  0.2836620E+01   0.2215255E-02 -0.5781861E+00  0.8159019E+00
 -0.2632958E+01 -0.4809333E+00  0.1791971E+01   0.2215255E-02 -0.5781861E+00  0.8159019E+00
  0.1759524E+01 -0.3016933E+01 -0.1708317E-01   0.2215255E-02 -0.5781861E+00  0.8159019E+00
  0.1785049E+01 -0.3001999E+01 -0.6569088E-02   0.2215255E-02 -0.5781861E+00  0.8159019E+00
  0.2640642E+01 -0.1524573E+01  0.1038081E+01   0.2215255E-02 -0.5781861E+00  0.8159019E+00
           4
  0.1751668E+01 -0.1041001E+01 -0.2836620E+01   0.5052257E+00 -0.2916929E+00 -0.8121960E+00
  0.1751840E+01 -0.1011427E+01 -0.2847134E+01   0.5052257E+00 -0.2916929E+00 -0.8121960E+00
  0.1777365E+01 -0.9964926E+00 -0.2836620E+01   0.5052257E+00 -0.2916929E+00 -0.8121960E+00
  0.1777193E+01 -0.1026066E+01 -0.2826106E+01   0.5052257E+00 -0.2916929E+00 -0.8121960E+00
           6
  0.2636738E+01 -0.1522325E+01 -0.1051218E+01   0.8670604E+00 -0.1713475E+00 -0.4678100E+00
  0.1777193E+01 -0.1026066E+01 -0.2826106E+01   0.8670604E+00 -0.1713475E+00 -0.4678100E+00
  0.1777365E+01 -0.9964926E+00 -0.2836620E+01   0.8670604E+00 -0.1713475E+00 -0.4678100E+00
  0.2632958E+01  0.4809333E+00 -0.1791971E+01   0.8670604E+00 -0.1713475E+00 -0.4678100E+00
  0.3492503E+01 -0.1532517E-01 -0.1708317E-01   0.8670604E+00 -0.1713475E+00 -0.4678100E+00
  0.3492331E+01 -0.4489893E-01 -0.6568611E-02   0.8670604E+00 -0.1713475E+00 -0.4678100E+00
           4
  0.2640642E+01 -0.1524573E+01  0.1038081E+01   0.8660233E+00 -0.4999989E+00 -0.2155910E-02
  0.1785049E+01 -0.3001999E+01 -0.6569088E-02   0.8660233E+00 -0.4999989E+00 -0.2155910E-02
  0.2636738E+01 -0.1522325E+01 -0.1051218E+01   0.8660233E+00 -0.4999989E+00 -0.2155910E-02
  0.3492331E+01 -0.4489893E-01 -0.6568611E-02   0.8660233E+00 -0.4999989E+00 -0.2155910E-02
           6
 -0.1777365E+01  0.9964926E+00  0.2836620E+01  -0.8670604E+00  0.1713475E+00  0.4678100E+00
 -0.1777193E+01  0.1026066E+01  0.2826106E+01  -0.8670604E+00  0.1713475E+00  0.4678100E+00
 -0.2636738E+01  0.1522325E+01  0.1051218E+01  -0.8670604E+00  0.1713475E+00  0.4678100E+00
 -0.3492331E+01  0.4489893E-01  0.6568611E-02  -0.8670604E+00  0.1713475E+00  0.4678100E+00
 -0.3492503E+01  0.1532517E-01  0.1708317E-01  -0.8670604E+00  0.1713475E+00  0.4678100E+00
 -0.2632958E+01 -0.4809333E+00  0.1791971E+01  -0.8670604E+00  0.1713475E+00  0.4678100E+00
           6
  0.2632958E+01  0.4809333E+00 -0.1791971E+01  -0.2215255E-02  0.5781861E+00 -0.8159019E+00
  0.1777365E+01 -0.9964926E+00 -0.2836620E+01  -0.2215255E-02  0.5781861E+00 -0.8159019E+00
  0.1751840E+01 -0.1011427E+01 -0.2847134E+01  -0.2215255E-02  0.5781861E+00 -0.8159019E+00
 -0.2640642E+01  0.1524573E+01 -0.1038081E+01  -0.2215255E-02  0.5781861E+00 -0.8159019E+00
 -0.1785049E+01  0.3001999E+01  0.6569088E-02  -0.2215255E-02  0.5781861E+00 -0.8159019E+00
 -0.1759524E+01  0.3016933E+01  0.1708317E-01  -0.2215255E-02  0.5781861E+00 -0.8159019E+00
           4
 -0.1785049E+01  0.3001999E+01  0.6569088E-02  -0.8660233E+00  0.4999989E+00  0.2155910E-02
 -0.2640642E+01  0.1524573E+01 -0.1038081E+01  -0.8660233E+00  0.4999989E+00  0.2155910E-02
 -0.3492331E+01  0.4489893E-01  0.6568611E-02  -0.8660233E+00  0.4999989E+00  0.2155910E-02
 -0.2636738E+01  0.1522325E+01  0.1051218E+01  -0.8660233E+00  0.4999989E+00  0.2155910E-02
           6
 -0.1751668E+01  0.1041001E+01  0.2836620E+01   0.5018317E+00  0.2871754E+00  0.8159015E+00
 -0.1751840E+01  0.1011427E+01  0.2847134E+01   0.5018317E+00  0.2871754E+00  0.8159015E+00
  0.2640642E+01 -0.1524573E+01  0.1038081E+01   0.5018317E+00  0.2871754E+00  0.8159015E+00
  0.3492331E+01 -0.4489893E-01 -0.6568611E-02   0.5018317E+00  0.2871754E+00  0.8159015E+00
  0.3492503E+01 -0.1532517E-01 -0.1708317E-01   0.5018317E+00  0.2871754E+00  0.8159015E+00
 -0.8999787E+00  0.2520675E+01  0.1791971E+01   0.5018317E+00  0.2871754E+00  0.8159015E+00
           4
 -0.1751840E+01  0.1011427E+01  0.2847134E+01  -0.5052257E+00  0.2916929E+00  0.8121960E+00
 -0.1751668E+01  0.1041001E+01  0.2836620E+01  -0.5052257E+00  0.2916929E+00  0.8121960E+00
 -0.1777193E+01  0.1026066E+01  0.2826106E+01  -0.5052257E+00  0.2916929E+00  0.8121960E+00
 -0.1777365E+01  0.9964926E+00  0.2836620E+01  -0.5052257E+00  0.2916929E+00  0.8121960E+00
           4
  0.3492503E+01 -0.1532517E-01 -0.1708317E-01   0.5000000E+00  0.8660254E+00 -0.7197392E-16
  0.2632958E+01  0.4809333E+00 -0.1791971E+01   0.5000000E+00  0.8660254E+00 -0.7197392E-16
 -0.1759524E+01  0.3016933E+01  0.1708317E-01   0.5000000E+00  0.8660254E+00 -0.7197392E-16
 -0.8999787E+00  0.2520675E+01  0.1791971E+01   0.5000000E+00  0.8660254E+00 -0.7197392E-16
           6
 -0.1777193E+01  0.1026066E+01  0.2826106E+01  -0.5819210E+00  0.6652232E+00  0.4678099E+00
 -0.1751668E+01  0.1041001E+01  0.2836620E+01  -0.5819210E+00  0.6652232E+00  0.4678099E+00
 -0.8999787E+00  0.2520675E+01  0.1791971E+01  -0.5819210E+00  0.6652232E+00  0.4678099E+00
 -0.1759524E+01  0.3016933E+01  0.1708317E-01  -0.5819210E+00  0.6652232E+00  0.4678099E+00
 -0.1785049E+01  0.3001999E+01  0.6569088E-02  -0.5819210E+00  0.6652232E+00  0.4678099E+00
 -0.2636738E+01  0.1522325E+01  0.1051218E+01  -0.5819210E+00  0.6652232E+00  0.4678099E+00
 WIGNER-SEITZ-PRIMCELL_END
 WIGNER-SEITZ-CONVCELL
           6
  0.8999787E+00 -0.2520675E+01 -0.1791971E+01   0.5819210E+00 -0.6652232E+00 -0.4678099E+00
  0.1751668E+01 -0.1041001E+01 -0.2836620E+01   0.5819210E+00 -0.6652232E+00 -0.4678099E+00
  0.1777193E+01 -0.1026066E+01 -0.2826106E+01   0.5819210E+00 -0.6652232E+00 -0.4678099E+00
  0.2636738E+01 -0.1522325E+01 -0.1051218E+01   0.5819210E+00 -0.6652232E+00 -0.4678099E+00
  0.1785049E+01 -0.3001999E+01 -0.6569088E-02   0.5819210E+00 -0.6652232E+00 -0.4678099E+00
  0.1759524E+01 -0.3016933E+01 -0.1708317E-01   0.5819210E+00 -0.6652232E+00 -0.4678099E+00
           4
 -0.2632958E+01 -0.4809333E+00  0.1791971E+01  -0.5000000E+00 -0.8660254E+00  0.1645118E-15
 -0.3492503E+01  0.1532517E-01  0.1708317E-01  -0.5000000E+00 -0.8660254E+00  0.1645118E-15
  0.8999787E+00 -0.2520675E+01 -0.1791971E+01  -0.5000000E+00 -0.8660254E+00  0.1645118E-15
  0.1759524E+01 -0.3016933E+01 -0.1708317E-01  -0.5000000E+00 -0.8660254E+00  0.1645118E-15
           6
 -0.2640642E+01  0.1524573E+01 -0.1038081E+01  -0.5018317E+00 -0.2871754E+00 -0.8159015E+00
  0.1751840E+01 -0.1011427E+01 -0.2847134E+01  -0.5018317E+00 -0.2871754E+00 -0.8159015E+00
  0.1751668E+01 -0.1041001E+01 -0.2836620E+01  -0.5018317E+00 -0.2871754E+00 -0.8159015E+00
  0.8999787E+00 -0.2520675E+01 -0.1791971E+01  -0.5018317E+00 -0.2871754E+00 -0.8159015E+00
 -0.3492503E+01  0.1532517E-01  0.1708317E-01  -0.5018317E+00 -0.2871754E+00 -0.8159015E+00
 -0.3492331E+01  0.4489893E-01  0.6568611E-02  -0.5018317E+00 -0.2871754E+00 -0.8159015E+00
           6
 -0.1751840E+01  0.1011427E+01  0.2847134E+01   0.2215255E-02 -0.5781861E+00  0.8159019E+00
 -0.1777365E+01  0.9964926E+00  0.2836620E+01   0.2215255E-02 -0.5781861E+00  0.8159019E+00
 -0.2632958E+01 -0.4809333E+00  0.1791971E+01   0.2215255E-02 -0.5781861E+00  0.8159019E+00
  0.1759524E+01 -0.3016933E+01 -0.1708317E-01   0.2215255E-02 -0.5781861E+00  0.8159019E+00
  0.1785049E+01 -0.3001999E+01 -0.6569088E-02   0.2215255E-02 -0.5781861E+00  0.8159019E+00
  0.2640642E+01 -0.1524573E+01  0.1038081E+01   0.2215255E-02 -0.5781861E+00  0.8159019E+00
           4
  0.1751668E+01 -0.1041001E+01 -0.2836620E+01   0.5052257E+00 -0.2916929E+00 -0.8121960E+00
  0.1751840E+01 -0.1011427E+01 -0.2847134E+01   0.5052257E+00 -0.2916929E+00 -0.8121960E+00
  0.1777365E+01 -0.9964926E+00 -0.2836620E+01   0.5052257E+00 -0.2916929E+00 -0.8121960E+00
  0.1777193E+01 -0.1026066E+01 -0.2826106E+01   0.5052257E+00 -0.2916929E+00 -0.8121960E+00
           6
  0.2636738E+01 -0.1522325E+01 -0.1051218E+01   0.8670604E+00 -0.1713475E+00 -0.4678100E+00
  0.1777193E+01 -0.1026066E+01 -0.2826106E+01   0.8670604E+00 -0.1713475E+00 -0.4678100E+00
  0.1777365E+01 -0.9964926E+00 -0.2836620E+01   0.8670604E+00 -0.1713475E+00 -0.4678100E+00
  0.2632958E+01  0.4809333E+00 -0.1791971E+01   0.8670604E+00 -0.1713475E+00 -0.4678100E+00
  0.3492503E+01 -0.1532517E-01 -0.1708317E-01   0.8670604E+00 -0.1713475E+00 -0.4678100E+00
  0.3492331E+01 -0.4489893E-01 -0.6568611E-02   0.8670604E+00 -0.1713475E+00 -0.4678100E+00
           4
  0.2640642E+01 -0.1524573E+01  0.1038081E+01   0.8660233E+00 -0.4999989E+00 -0.2155910E-02
  0.1785049E+01 -0.3001999E+01 -0.6569088E-02   0.8660233E+00 -0.4999989E+00 -0.2155910E-02
  0.2636738E+01 -0.1522325E+01 -0.1051218E+01   0.8660233E+00 -0.4999989E+00 -0.2155910E-02
  0.3492331E+01 -0.4489893E-01 -0.6568611E-02   0.8660233E+00 -0.4999989E+00 -0.2155910E-02
           6
 -0.1777365E+01  0.9964926E+00  0.2836620E+01  -0.8670604E+00  0.1713475E+00  0.4678100E+00
 -0.1777193E+01  0.1026066E+01  0.2826106E+01  -0.8670604E+00  0.1713475E+00  0.4678100E+00
 -0.2636738E+01  0.1522325E+01  0.1051218E+01  -0.8670604E+00  0.1713475E+00  0.4678100E+00
 -0.3492331E+01  0.4489893E-01  0.6568611E-02  -0.8670604E+00  0.1713475E+00  0.4678100E+00
 -0.3492503E+01  0.1532517E-01  0.1708317E-01  -0.8670604E+00  0.1713475E+00  0.4678100E+00
 -0.2632958E+01 -0.4809333E+00  0.1791971E+01  -0.8670604E+00  0.1713475E+00  0.4678100E+00
           6
  0.2632958E+01  0.4809333E+00 -0.1791971E+01  -0.2215255E-02  0.5781861E+00 -0.8159019E+00
  0.1777365E+01 -0.9964926E+00 -0.2836620E+01  -0.2215255E-02  0.5781861E+00 -0.8159019E+00
  0.1751840E+01 -0.1011427E+01 -0.2847134E+01  -0.2215255E-02  0.5781861E+00 -0.8159019E+00
 -0.2640642E+01  0.1524573E+01 -0.1038081E+01  -0.2215255E-02  0.5781861E+00 -0.8159019E+00
 -0.1785049E+01  0.3001999E+01  0.6569088E-02  -0.2215255E-02  0.5781861E+00 -0.8159019E+00
 -0.1759524E+01  0.3016933E+01  0.1708317E-01  -0.2215255E-02  0.5781861E+00 -0.8159019E+00
           4
 -0.1785049E+01  0.3001999E+01  0.6569088E-02  -0.8660233E+00  0.4999989E+00  0.2155910E-02
 -0.2640642E+01  0.1524573E+01 -0.1038081E+01  -0.8660233E+00  0.4999989E+00  0.2155910E-02
 -0.3492331E+01  0.4489893E-01  0.6568611E-02  -0.8660233E+00  0.4999989E+00  0.2155910E-02
 -0.2636738E+01  0.1522325E+01  0.1051218E+01  -0.8660233E+00  0.4999989E+00  0.2155910E-02
           6
 -0.1751668E+01  0.1041001E+01  0.2836620E+01   0.5018317E+00  0.2871754E+00  0.8159015E+00
 -0.1751840E+01  0.1011427E+01  0.2847134E+01   0.5018317E+00  0.2871754E+00  0.8159015E+00
  0.2640642E+01 -0.1524573E+01  0.1038081E+01   0.5018317E+00  0.2871754E+00  0.8159015E+00
  0.3492331E+01 -0.4489893E-01 -0.6568611E-02   0.5018317E+00  0.2871754E+00  0.8159015E+00
  0.3492503E+01 -0.1532517E-01 -0.1708317E-01   0.5018317E+00  0.2871754E+00  0.8159015E+00
 -0.8999787E+00  0.2520675E+01  0.1791971E+01   0.5018317E+00  0.2871754E+00  0.8159015E+00
           4
 -0.1751840E+01  0.1011427E+01  0.2847134E+01  -0.5052257E+00  0.2916929E+00  0.8121960E+00
 -0.1751668E+01  0.1041001E+01  0.2836620E+01  -0.5052257E+00  0.2916929E+00  0.8121960E+00
 -0.1777193E+01  0.1026066E+01  0.2826106E+01  -0.5052257E+00  0.2916929E+00  0.8121960E+00
 -0.1777365E+01  0.9964926E+00  0.2836620E+01  -0.5052257E+00  0.2916929E+00  0.8121960E+00
           4
  0.3492503E+01 -0.1532517E-01 -0.1708317E-01   0.5000000E+00  0.8660254E+00 -0.7197392E-16
  0.2632958E+01  0.4809333E+00 -0.1791971E+01   0.5000000E+00  0.8660254E+00 -0.7197392E-16
 -0.1759524E+01  0.3016933E+01  0.1708317E-01   0.5000000E+00  0.8660254E+00 -0.7197392E-16
 -0.8999787E+00  0.2520675E+01  0.1791971E+01   0.5000000E+00  0.8660254E+00 -0.7197392E-16
           6
 -0.1777193E+01  0.1026066E+01  0.2826106E+01  -0.5819210E+00  0.6652232E+00  0.4678099E+00
 -0.1751668E+01  0.1041001E+01  0.2836620E+01  -0.5819210E+00  0.6652232E+00  0.4678099E+00
 -0.8999787E+00  0.2520675E+01  0.1791971E+01  -0.5819210E+00  0.6652232E+00  0.4678099E+00
 -0.1759524E+01  0.3016933E+01  0.1708317E-01  -0.5819210E+00  0.6652232E+00  0.4678099E+00
 -0.1785049E+01  0.3001999E+01  0.6569088E-02  -0.5819210E+00  0.6652232E+00  0.4678099E+00
 -0.2636738E+01  0.1522325E+01  0.1051218E+01  -0.5819210E+00  0.6652232E+00  0.4678099E+00
 WIGNER-SEITZ-CONVCELL_END
 BRILLOUIN-ZONE-PRIMCELL
           6
  0.1923951E-01  0.1972992E+00  0.2924276E-01  -0.8156934E+00  0.4709407E+00  0.3359452E+00
 -0.7139677E-01  0.1454322E+00 -0.1181179E+00  -0.8156934E+00  0.4709407E+00  0.3359452E+00
 -0.1616464E+00 -0.1088472E-01 -0.1181179E+00  -0.8156934E+00  0.4709407E+00  0.3359452E+00
 -0.1612463E+00 -0.1153116E+00  0.2924306E-01  -0.8156934E+00  0.4709407E+00  0.3359452E+00
 -0.7061001E-01 -0.6344458E-01  0.1766038E+00  -0.8156934E+00  0.4709407E+00  0.3359452E+00
  0.1963961E-01  0.9287236E-01  0.1766038E+00  -0.8156934E+00  0.4709407E+00  0.3359452E+00
           4
 -0.7061001E-01 -0.6344458E-01  0.1766038E+00   0.1867072E-02 -0.1077955E-02  0.9999977E+00
 -0.1898038E-01 -0.9325296E-01  0.1764752E+00   0.1867072E-02 -0.1077955E-02  0.9999977E+00
  0.7126923E-01  0.6306398E-01  0.1764752E+00   0.1867072E-02 -0.1077955E-02  0.9999977E+00
  0.1963961E-01  0.9287236E-01  0.1766038E+00   0.1867072E-02 -0.1077955E-02  0.9999977E+00
           6
  0.1253504E+00  0.5237652E-01  0.1472965E+00   0.4274696E+00  0.7381485E+00  0.5219258E+00
  0.1249503E+00  0.1568034E+00 -0.6447267E-04   0.4274696E+00  0.7381485E+00  0.5219258E+00
  0.7332065E-01  0.1866118E+00  0.6405596E-04   0.4274696E+00  0.7381485E+00  0.5219258E+00
  0.1923951E-01  0.1972992E+00  0.2924276E-01   0.4274696E+00  0.7381485E+00  0.5219258E+00
  0.1963961E-01  0.9287236E-01  0.1766038E+00   0.4274696E+00  0.7381485E+00  0.5219258E+00
  0.7126923E-01  0.6306398E-01  0.1764752E+00   0.4274696E+00  0.7381485E+00  0.5219258E+00
           6
 -0.1898038E-01 -0.9325296E-01  0.1764752E+00  -0.4255204E+00 -0.7392732E+00  0.5219267E+00
 -0.7061001E-01 -0.6344458E-01  0.1766038E+00  -0.4255204E+00 -0.7392732E+00  0.5219267E+00
 -0.1612463E+00 -0.1153116E+00  0.2924306E-01  -0.4255204E+00 -0.7392732E+00  0.5219267E+00
 -0.1249503E+00 -0.1568034E+00  0.6447267E-04  -0.4255204E+00 -0.7392732E+00  0.5219267E+00
 -0.7332065E-01 -0.1866118E+00 -0.6405596E-04  -0.4255204E+00 -0.7392732E+00  0.5219267E+00
  0.1731562E-01 -0.1347448E+00  0.1472966E+00  -0.4255204E+00 -0.7392732E+00  0.5219267E+00
           4
  0.7332065E-01  0.1866118E+00  0.6405596E-04   0.5459210E-02  0.9422062E+00 -0.3349890E+00
 -0.1731562E-01  0.1347448E+00 -0.1472966E+00   0.5459210E-02  0.9422062E+00 -0.3349890E+00
 -0.7139677E-01  0.1454322E+00 -0.1181179E+00   0.5459210E-02  0.9422062E+00 -0.3349890E+00
  0.1923951E-01  0.1972992E+00  0.2924276E-01   0.5459210E-02  0.9422062E+00 -0.3349890E+00
           6
 -0.1731562E-01  0.1347448E+00 -0.1472966E+00  -0.4226825E+00  0.2440358E+00 -0.8728035E+00
  0.1898038E-01  0.9325296E-01 -0.1764752E+00  -0.4226825E+00  0.2440358E+00 -0.8728035E+00
 -0.7126923E-01 -0.6306398E-01 -0.1764752E+00  -0.4226825E+00  0.2440358E+00 -0.8728035E+00
 -0.1253504E+00 -0.5237652E-01 -0.1472965E+00  -0.4226825E+00  0.2440358E+00 -0.8728035E+00
 -0.1616464E+00 -0.1088472E-01 -0.1181179E+00  -0.4226825E+00  0.2440358E+00 -0.8728035E+00
 -0.7139677E-01  0.1454322E+00 -0.1181179E+00  -0.4226825E+00  0.2440358E+00 -0.8728035E+00
           4
 -0.1612463E+00 -0.1153116E+00  0.2924306E-01  -0.8132453E+00 -0.4758310E+00 -0.3349880E+00
 -0.1616464E+00 -0.1088472E-01 -0.1181179E+00  -0.8132453E+00 -0.4758310E+00 -0.3349880E+00
 -0.1253504E+00 -0.5237652E-01 -0.1472965E+00  -0.8132453E+00 -0.4758310E+00 -0.3349880E+00
 -0.1249503E+00 -0.1568034E+00  0.6447267E-04  -0.8132453E+00 -0.4758310E+00 -0.3349880E+00
           6
  0.7126923E-01  0.6306398E-01  0.1764752E+00   0.4226825E+00 -0.2440358E+00  0.8728035E+00
 -0.1898038E-01 -0.9325296E-01  0.1764752E+00   0.4226825E+00 -0.2440358E+00  0.8728035E+00
  0.1731562E-01 -0.1347448E+00  0.1472966E+00   0.4226825E+00 -0.2440358E+00  0.8728035E+00
  0.7139677E-01 -0.1454322E+00  0.1181179E+00   0.4226825E+00 -0.2440358E+00  0.8728035E+00
  0.1616464E+00  0.1088472E-01  0.1181179E+00   0.4226825E+00 -0.2440358E+00  0.8728035E+00
  0.1253504E+00  0.5237652E-01  0.1472965E+00   0.4226825E+00 -0.2440358E+00  0.8728035E+00
           6
  0.1612463E+00  0.1153116E+00 -0.2924306E-01   0.4255204E+00  0.7392732E+00 -0.5219267E+00
  0.7061001E-01  0.6344458E-01 -0.1766038E+00   0.4255204E+00  0.7392732E+00 -0.5219267E+00
  0.1898038E-01  0.9325296E-01 -0.1764752E+00   0.4255204E+00  0.7392732E+00 -0.5219267E+00
 -0.1731562E-01  0.1347448E+00 -0.1472966E+00   0.4255204E+00  0.7392732E+00 -0.5219267E+00
  0.7332065E-01  0.1866118E+00  0.6405596E-04   0.4255204E+00  0.7392732E+00 -0.5219267E+00
  0.1249503E+00  0.1568034E+00 -0.6447267E-04   0.4255204E+00  0.7392732E+00 -0.5219267E+00
           4
  0.1616464E+00  0.1088472E-01  0.1181179E+00   0.8132453E+00  0.4758310E+00  0.3349880E+00
  0.1612463E+00  0.1153116E+00 -0.2924306E-01   0.8132453E+00  0.4758310E+00  0.3349880E+00
  0.1249503E+00  0.1568034E+00 -0.6447267E-04   0.8132453E+00  0.4758310E+00  0.3349880E+00
  0.1253504E+00  0.5237652E-01  0.1472965E+00   0.8132453E+00  0.4758310E+00  0.3349880E+00
           6
 -0.7332065E-01 -0.1866118E+00 -0.6405596E-04  -0.4274696E+00 -0.7381485E+00 -0.5219258E+00
 -0.1249503E+00 -0.1568034E+00  0.6447267E-04  -0.4274696E+00 -0.7381485E+00 -0.5219258E+00
 -0.1253504E+00 -0.5237652E-01 -0.1472965E+00  -0.4274696E+00 -0.7381485E+00 -0.5219258E+00
 -0.7126923E-01 -0.6306398E-01 -0.1764752E+00  -0.4274696E+00 -0.7381485E+00 -0.5219258E+00
 -0.1963961E-01 -0.9287236E-01 -0.1766038E+00  -0.4274696E+00 -0.7381485E+00 -0.5219258E+00
 -0.1923951E-01 -0.1972992E+00 -0.2924276E-01  -0.4274696E+00 -0.7381485E+00 -0.5219258E+00
           4
  0.1731562E-01 -0.1347448E+00  0.1472966E+00  -0.5459210E-02 -0.9422062E+00  0.3349890E+00
 -0.7332065E-01 -0.1866118E+00 -0.6405596E-04  -0.5459210E-02 -0.9422062E+00  0.3349890E+00
 -0.1923951E-01 -0.1972992E+00 -0.2924276E-01  -0.5459210E-02 -0.9422062E+00  0.3349890E+00
  0.7139677E-01 -0.1454322E+00  0.1181179E+00  -0.5459210E-02 -0.9422062E+00  0.3349890E+00
           4
  0.1898038E-01  0.9325296E-01 -0.1764752E+00  -0.1867072E-02  0.1077955E-02 -0.9999977E+00
  0.7061001E-01  0.6344458E-01 -0.1766038E+00  -0.1867072E-02  0.1077955E-02 -0.9999977E+00
 -0.1963961E-01 -0.9287236E-01 -0.1766038E+00  -0.1867072E-02  0.1077955E-02 -0.9999977E+00
 -0.7126923E-01 -0.6306398E-01 -0.1764752E+00  -0.1867072E-02  0.1077955E-02 -0.9999977E+00
           6
  0.1616464E+00  0.1088472E-01  0.1181179E+00   0.8156934E+00 -0.4709407E+00 -0.3359452E+00
  0.7139677E-01 -0.1454322E+00  0.1181179E+00   0.8156934E+00 -0.4709407E+00 -0.3359452E+00
 -0.1923951E-01 -0.1972992E+00 -0.2924276E-01   0.8156934E+00 -0.4709407E+00 -0.3359452E+00
 -0.1963961E-01 -0.9287236E-01 -0.1766038E+00   0.8156934E+00 -0.4709407E+00 -0.3359452E+00
  0.7061001E-01  0.6344458E-01 -0.1766038E+00   0.8156934E+00 -0.4709407E+00 -0.3359452E+00
  0.1612463E+00  0.1153116E+00 -0.2924306E-01   0.8156934E+00 -0.4709407E+00 -0.3359452E+00
 BRILLOUIN-ZONE-PRIMCELL_END
 BRILLOUIN-ZONE-CONVCELL
           6
  0.1923951E-01  0.1972992E+00  0.2924276E-01  -0.8156934E+00  0.4709407E+00  0.3359452E+00
 -0.7139677E-01  0.1454322E+00 -0.1181179E+00  -0.8156934E+00  0.4709407E+00  0.3359452E+00
 -0.1616464E+00 -0.1088472E-01 -0.1181179E+00  -0.8156934E+00  0.4709407E+00  0.3359452E+00
 -0.1612463E+00 -0.1153116E+00  0.2924306E-01  -0.8156934E+00  0.4709407E+00  0.3359452E+00
 -0.7061001E-01 -0.6344458E-01  0.1766038E+00  -0.8156934E+00  0.4709407E+00  0.3359452E+00
  0.1963961E-01  0.9287236E-01  0.1766038E+00  -0.8156934E+00  0.4709407E+00  0.3359452E+00
           4
 -0.7061001E-01 -0.6344458E-01  0.1766038E+00   0.1867072E-02 -0.1077955E-02  0.9999977E+00
 -0.1898038E-01 -0.9325296E-01  0.1764752E+00   0.1867072E-02 -0.1077955E-02  0.9999977E+00
  0.7126923E-01  0.6306398E-01  0.1764752E+00   0.1867072E-02 -0.1077955E-02  0.9999977E+00
  0.1963961E-01  0.9287236E-01  0.1766038E+00   0.1867072E-02 -0.1077955E-02  0.9999977E+00
           6
  0.1253504E+00  0.5237652E-01  0.1472965E+00   0.4274696E+00  0.7381485E+00  0.5219258E+00
  0.1249503E+00  0.1568034E+00 -0.6447267E-04   0.4274696E+00  0.7381485E+00  0.5219258E+00
  0.7332065E-01  0.1866118E+00  0.6405596E-04   0.4274696E+00  0.7381485E+00  0.5219258E+00
  0.1923951E-01  0.1972992E+00  0.2924276E-01   0.4274696E+00  0.7381485E+00  0.5219258E+00
  0.1963961E-01  0.9287236E-01  0.1766038E+00   0.4274696E+00  0.7381485E+00  0.5219258E+00
  0.7126923E-01  0.6306398E-01  0.1764752E+00   0.4274696E+00  0.7381485E+00  0.5219258E+00
           6
 -0.1898038E-01 -0.9325296E-01  0.1764752E+00  -0.4255204E+00 -0.7392732E+00  0.5219267E+00
 -0.7061001E-01 -0.6344458E-01  0.1766038E+00  -0.4255204E+00 -0.7392732E+00  0.5219267E+00
 -0.1612463E+00 -0.1153116E+00  0.2924306E-01  -0.4255204E+00 -0.7392732E+00  0.5219267E+00
 -0.1249503E+00 -0.1568034E+00  0.6447267E-04  -0.4255204E+00 -0.7392732E+00  0.5219267E+00
 -0.7332065E-01 -0.1866118E+00 -0.6405596E-04  -0.4255204E+00 -0.7392732E+00  0.5219267E+00
  0.1731562E-01 -0.1347448E+00  0.1472966E+00  -0.4255204E+00 -0.7392732E+00  0.5219267E+00
           4
  0.7332065E-01  0.1866118E+00  0.6405596E-04   0.5459210E-02  0.9422062E+00 -0.3349890E+00
 -0.1731562E-01  0.1347448E+00 -0.1472966E+00   0.5459210E-02  0.9422062E+00 -0.3349890E+00
 -0.7139677E-01  0.1454322E+00 -0.1181179E+00   0.5459210E-02  0.9422062E+00 -0.3349890E+00
  0.1923951E-01  0.1972992E+00  0.2924276E-01   0.5459210E-02  0.9422062E+00 -0.3349890E+00
           6
 -0.1731562E-01  0.1347448E+00 -0.1472966E+00  -0.4226825E+00  0.2440358E+00 -0.8728035E+00
  0.1898038E-01  0.9325296E-01 -0.1764752E+00  -0.4226825E+00  0.2440358E+00 -0.8728035E+00
 -0.7126923E-01 -0.6306398E-01 -0.1764752E+00  -0.4226825E+00  0.2440358E+00 -0.8728035E+00
 -0.1253504E+00 -0.5237652E-01 -0.1472965E+00  -0.4226825E+00  0.2440358E+00 -0.8728035E+00
 -0.1616464E+00 -0.1088472E-01 -0.1181179E+00  -0.4226825E+00  0.2440358E+00 -0.8728035E+00
 -0.7139677E-01  0.1454322E+00 -0.1181179E+00  -0.4226825E+00  0.2440358E+00 -0.8728035E+00
           4
 -0.1612463E+00 -0.1153116E+00  0.2924306E-01  -0.8132453E+00 -0.4758310E+00 -0.3349880E+00
 -0.1616464E+00 -0.1088472E-01 -0.1181179E+00  -0.8132453E+00 -0.4758310E+00 -0.3349880E+00
 -0.1253504E+00 -0.5237652E-01 -0.1472965E+00  -0.8132453E+00 -0.4758310E+00 -0.3349880E+00
 -0.1249503E+00 -0.1568034E+00  0.6447267E-04  -0.8132453E+00 -0.4758310E+00 -0.3349880E+00
           6
  0.7126923E-01  0.6306398E-01  0.1764752E+00   0.4226825E+00 -0.2440358E+00  0.8728035E+00
 -0.1898038E-01 -0.9325296E-01  0.1764752E+00   0.4226825E+00 -0.2440358E+00  0.8728035E+00
  0.1731562E-01 -0.1347448E+00  0.1472966E+00   0.4226825E+00 -0.2440358E+00  0.8728035E+00
  0.7139677E-01 -0.1454322E+00  0.1181179E+00   0.4226825E+00 -0.2440358E+00  0.8728035E+00
  0.1616464E+00  0.1088472E-01  0.1181179E+00   0.4226825E+00 -0.2440358E+00  0.8728035E+00
  0.1253504E+00  0.5237652E-01  0.1472965E+00   0.4226825E+00 -0.2440358E+00  0.8728035E+00
           6
  0.1612463E+00  0.1153116E+00 -0.2924306E-01   0.4255204E+00  0.7392732E+00 -0.5219267E+00
  0.7061001E-01  0.6344458E-01 -0.1766038E+00   0.4255204E+00  0.7392732E+00 -0.5219267E+00
  0.1898038E-01  0.9325296E-01 -0.1764752E+00   0.4255204E+00  0.7392732E+00 -0.5219267E+00
 -0.1731562E-01  0.1347448E+00 -0.1472966E+00   0.4255204E+00  0.7392732E+00 -0.5219267E+00
  0.7332065E-01  0.1866118E+00  0.6405596E-04   0.4255204E+00  0.7392732E+00 -0.5219267E+00
  0.1249503E+00  0.1568034E+00 -0.6447267E-04   0.4255204E+00  0.7392732E+00 -0.5219267E+00
           4
  0.1616464E+00  0.1088472E-01  0.1181179E+00   0.8132453E+00  0.4758310E+00  0.3349880E+00
  0.1612463E+00  0.1153116E+00 -0.2924306E-01   0.8132453E+00  0.4758310E+00  0.3349880E+00
  0.1249503E+00  0.1568034E+00 -0.6447267E-04   0.8132453E+00  0.4758310E+00  0.3349880E+00
  0.1253504E+00  0.5237652E-01  0.1472965E+00   0.8132453E+00  0.4758310E+00  0.3349880E+00
           6
 -0.7332065E-01 -0.1866118E+00 -0.6405596E-04  -0.4274696E+00 -0.7381485E+00 -0.5219258E+00
 -0.1249503E+00 -0.1568034E+00  0.6447267E-04  -0.4274696E+00 -0.7381485E+00 -0.5219258E+00
 -0.1253504E+00 -0.5237652E-01 -0.1472965E+00  -0.4274696E+00 -0.7381485E+00 -0.5219258E+00
 -0.7126923E-01 -0.6306398E-01 -0.1764752E+00  -0.4274696E+00 -0.7381485E+00 -0.5219258E+00
 -0.1963961E-01 -0.9287236E-01 -0.1766038E+00  -0.4274696E+00 -0.7381485E+00 -0.5219258E+00
 -0.1923951E-01 -0.1972992E+00 -0.2924276E-01  -0.4274696E+00 -0.7381485E+00 -0.5219258E+00
           4
  0.1731562E-01 -0.1347448E+00  0.1472966E+00  -0.5459210E-02 -0.9422062E+00  0.3349890E+00
 -0.7332065E-01 -0.1866118E+00 -0.6405596E-04  -0.5459210E-02 -0.9422062E+00  0.3349890E+00
 -0.1923951E-01 -0.1972992E+00 -0.2924276E-01  -0.5459210E-02 -0.9422062E+00  0.3349890E+00
  0.7139677E-01 -0.1454322E+00  0.1181179E+00  -0.5459210E-02 -0.9422062E+00  0.3349890E+00
           4
  0.1898038E-01  0.9325296E-01 -0.1764752E+00  -0.1867072E-02  0.1077955E-02 -0.9999977E+00
  0.7061001E-01  0.6344458E-01 -0.1766038E+00  -0.1867072E-02  0.1077955E-02 -0.9999977E+00
 -0.1963961E-01 -0.9287236E-01 -0.1766038E+00  -0.1867072E-02  0.1077955E-02 -0.9999977E+00
 -0.7126923E-01 -0.6306398E-01 -0.1764752E+00  -0.1867072E-02  0.1077955E-02 -0.9999977E+00
           6
  0.1616464E+00  0.1088472E-01  0.1181179E+00   0.8156934E+00 -0.4709407E+00 -0.3359452E+00
  0.7139677E-01 -0.1454322E+00  0.1181179E+00   0.8156934E+00 -0.4709407E+00 -0.3359452E+00
 -0.1923951E-01 -0.1972992E+00 -0.2924276E-01   0.8156934E+00 -0.4709407E+00 -0.3359452E+00
 -0.1963961E-01 -0.9287236E-01 -0.1766038E+00   0.8156934E+00 -0.4709407E+00 -0.3359452E+00
  0.7061001E-01  0.6344458E-01 -0.1766038E+00   0.8156934E+00 -0.4709407E+00 -0.3359452E+00
  0.1612463E+00  0.1153116E+00 -0.2924306E-01   0.8156934E+00 -0.4709407E+00 -0.3359452E+00
 BRILLOUIN-ZONE-CONVCELL_END
 ATOMS
   25    5.2236148900    2.9873571360    2.1239940870   -0.0005414100    0.0003125800    0.0004782900
   25    8.7288044790    2.9647061520    2.1174211430   -0.0005438000    0.0003139700    0.0004792700
   16    3.4841284290    3.9916501410    2.8236689250    0.0005449100   -0.0003146000   -0.0004797200
   16    6.9893182880    3.9689989500    2.8170974430    0.0005403100   -0.0003119500   -0.0004778400
 FRAMES
1      0.0000000000    0.0000000000    0.0000000000      7.0103590110   -0.0452894580   -0.0131376990
1      0.0000000000    0.0000000000    0.0000000000      1.7329790570    3.0016081460    0.0000000000
1      0.0000000000    0.0000000000    0.0000000000      1.7406629290    0.9961020430    2.8300512400
1      1.7406629290    0.9961020430    2.8300512400      8.7510219400    0.9508125850    2.8169135410
1      1.7406629290    0.9961020430    2.8300512400      3.4736419860    3.9977101890    2.8300512400
1      1.7329790570    3.0016081460    0.0000000000      8.7433380680    2.9563186880   -0.0131376990