
     Program PWSCF v.7.3.1 starts on 17Jan2025 at 23:30:54 

     This program is part of the open-source Quantum ESPRESSO suite
     for quantum simulation of materials; please cite
         "P. Giannozzi et al., J. Phys.:Condens. Matter 21 395502 (2009);
         "P. Giannozzi et al., J. Phys.:Condens. Matter 29 465901 (2017);
         "P. Giannozzi et al., J. Chem. Phys. 152 154105 (2020);
          URL http://www.quantum-espresso.org", 
     in publications or presentations arising from this work. More details at
     http://www.quantum-espresso.org/quote

     Parallel version (MPI), running on     4 processors

     MPI processes distributed on     1 nodes
     5167 MiB available memory on the printing compute node when the environment starts

     Reading input from vc_relax.in

     Current dimensions of program PWSCF are:
     Max number of different atomic species (ntypx) = 10
     Max number of k-points (npk) =  40000
     Max angular momentum in pseudopotentials (lmaxx) =  4
     file Mn.pbe-spn-kjpaw_psl.0.3.1.UPF: wavefunction(s)  3P 3D renormalized
     file Mn.pbe-spn-kjpaw_psl.0.3.1.UPF: wavefunction(s)  3P 3D renormalized
     file S.pbe-n-kjpaw_psl.1.0.0.UPF: wavefunction(s)  3S 3P renormalized
     Message from routine setup:
     using ibrav=0 with symmetry is DISCOURAGED, use correct ibrav instead

     R & G space division:  proc/nbgrp/npool/nimage =       4
     Subspace diagonalization in iterative solution of the eigenvalue problem:
     a serial algorithm will be used


     Parallelization info
     --------------------
     sticks:   dense  smooth     PW     G-vecs:    dense   smooth      PW
     Min         279     225     73                 4412     3174     574
     Max         282     226     75                 4413     3175     575
     Sum        1121     901    295                17651    12697    2297

     Using Slab Decomposition



     bravais-lattice index     =            0
     lattice parameter (alat)  =      14.7866  a.u.
     unit-cell volume          =     571.5148 (a.u.)^3
     number of atoms/cell      =            4
     number of atomic types    =            3
     number of electrons       =        42.00
     number of Kohn-Sham states=           25
     kinetic-energy cutoff     =      30.0000  Ry
     charge density cutoff     =     150.0000  Ry
     scf convergence threshold =      1.0E-10
     mixing beta               =       0.7000
     number of iterations used =            8  plain     mixing
     energy convergence thresh.=      1.0E-05
     force convergence thresh. =      1.0E-04
     press convergence thresh. =      5.0E-01
     Exchange-correlation= SLA  PW   PBX  PBC
                           (   1   4   3   4   0   0   0)
     nstep                     =           50


     celldm(1)=  14.786571  celldm(2)=   0.000000  celldm(3)=   0.000000
     celldm(4)=   0.000000  celldm(5)=   0.000000  celldm(6)=   0.000000

     crystal axes: (cart. coord. in units of alat)
               a(1) = (   1.000000   0.000000   0.000000 )  
               a(2) = (   0.250000   0.433013   0.000000 )  
               a(3) = (   0.250000   0.144338   0.408248 )  

     reciprocal axes: (cart. coord. in units 2 pi/alat)
               b(1) = (  1.000000 -0.577350 -0.408248 )  
               b(2) = (  0.000000  2.309401 -0.816496 )  
               b(3) = (  0.000000  0.000000  2.449490 )  


     PseudoPot. # 1 for Mn read from file:
     ./../../../pseudos/Mn.pbe-spn-kjpaw_psl.0.3.1.UPF
     MD5 check sum: ba19e6d7ccbc12830efad05ba8577d9c
     Pseudo is Projector augmented-wave + core cor, Zval = 15.0
     Generated using &quot;atomic&quot; code by A. Dal Corso  v.6.2.2
     Shape of augmentation charge: PSQ
     Using radial grid of 1187 points,  6 beta functions with: 
                l(1) =   0
                l(2) =   0
                l(3) =   1
                l(4) =   1
                l(5) =   2
                l(6) =   2
     Q(r) pseudized with 0 coefficients 


     PseudoPot. # 2 for Mn read from file:
     ./../../../pseudos/Mn.pbe-spn-kjpaw_psl.0.3.1.UPF
     MD5 check sum: ba19e6d7ccbc12830efad05ba8577d9c
     Pseudo is Projector augmented-wave + core cor, Zval = 15.0
     Generated using &quot;atomic&quot; code by A. Dal Corso  v.6.2.2
     Shape of augmentation charge: PSQ
     Using radial grid of 1187 points,  6 beta functions with: 
                l(1) =   0
                l(2) =   0
                l(3) =   1
                l(4) =   1
                l(5) =   2
                l(6) =   2
     Q(r) pseudized with 0 coefficients 


     PseudoPot. # 3 for S  read from file:
     ./../../../pseudos/S.pbe-n-kjpaw_psl.1.0.0.UPF
     MD5 check sum: fb45dfebcf3e72a4e1bd4a866ec2e262
     Pseudo is Projector augmented-wave + core cor, Zval =  6.0
     Generated using &quot;atomic&quot; code by A. Dal Corso  v.6.3
     Shape of augmentation charge: PSQ
     Using radial grid of 1151 points,  6 beta functions with: 
                l(1) =   0
                l(2) =   0
                l(3) =   1
                l(4) =   1
                l(5) =   2
                l(6) =   2
     Q(r) pseudized with 0 coefficients 


     atomic species   valence    mass     pseudopotential
     Mn1              15.00    54.93800     Mn( 1.00)
     Mn2              15.00    54.93800     Mn( 1.00)
     S                 6.00    32.06500     S ( 1.00)

     Starting magnetic structure 
     atomic species   magnetization
     Mn1             0.200
     Mn2             0.200
     S               0.000

      2 Sym. Ops. (no inversion) found


                                    s                        frac. trans.

      isym =  1     identity                                     

 cryst.   s( 1) = (     1          0          0      )
                  (     0          1          0      )
                  (     0          0          1      )

 cart.    s( 1) = (  1.0000000  0.0000000  0.0000000 )
                  (  0.0000000  1.0000000  0.0000000 )
                  (  0.0000000  0.0000000  1.0000000 )


      isym =  2     inv. 180 deg rotation - cryst. axis [1,1,0]  

 cryst.   s( 2) = (     1         -2          0      )
                  (     0         -1          0      )
                  (     0         -1          1      )

 cart.    s( 2) = (  0.5000001 -0.8660253 -0.0000000 )
                  ( -0.8660254 -0.5000001 -0.0000001 )
                  (  0.0000000  0.0000000  1.0000000 )


   Cartesian axes

     site n.     atom                  positions (alat units)
         1        Mn1    tau(   1) = (   0.7484265   0.4339211   0.3071759  )
         2        Mn2    tau(   2) = (   1.2484266   0.4339211   0.3071759  )
         3        S      tau(   3) = (   0.5015735   0.5764418   0.4072585  )
         4        S      tau(   4) = (   1.0015732   0.5764420   0.4072587  )

   Crystallographic axes

     site n.     atom                  positions (cryst. coord.)
         1        Mn1    tau(   1) = (  0.3724981  0.7512898  0.7524242  )
         2        Mn2    tau(   2) = (  0.8724981  0.7512898  0.7524243  )
         3        S      tau(   3) = (  0.0025022  0.9987100  0.9975756  )
         4        S      tau(   4) = (  0.5025017  0.9987104  0.9975759  )

     number of k points=    38  Gaussian smearing, width (Ry)=  0.0100
                       cart. coord. in units 2pi/alat
        k(    1) = (   0.0000000   0.0000000   0.0000000), wk =   0.0133333
        k(    2) = (   0.0000000   0.0000000   0.4898979), wk =   0.0266667
        k(    3) = (   0.0000000   0.0000000   0.9797958), wk =   0.0266667
        k(    4) = (   0.0000000   0.4618802  -0.1632993), wk =   0.0266667
        k(    5) = (   0.0000000   0.4618802   0.3265986), wk =   0.0266667
        k(    6) = (   0.0000000   0.4618802   0.8164966), wk =   0.0266667
        k(    7) = (   0.0000000   0.4618802  -1.1430951), wk =   0.0266667
        k(    8) = (   0.0000000   0.4618802  -0.6531972), wk =   0.0266667
        k(    9) = (   0.0000000   0.9237604  -0.3265986), wk =   0.0266667
        k(   10) = (   0.0000000   0.9237604   0.1632993), wk =   0.0266667
        k(   11) = (   0.0000000   0.9237604   0.6531973), wk =   0.0266667
        k(   12) = (   0.0000000   0.9237604  -1.3063944), wk =   0.0266667
        k(   13) = (   0.0000000   0.9237604  -0.8164965), wk =   0.0266667
        k(   14) = (   0.3333333  -0.1924501  -0.1360827), wk =   0.0266667
        k(   15) = (   0.3333333  -0.1924501   0.3538152), wk =   0.0266667
        k(   16) = (   0.3333333  -0.1924501   0.8437131), wk =   0.0266667
        k(   17) = (   0.3333333  -0.1924501  -1.1158786), wk =   0.0266667
        k(   18) = (   0.3333333  -0.1924501  -0.6259807), wk =   0.0266667
        k(   19) = (   0.3333333   0.2694301  -0.2993820), wk =   0.0266667
        k(   20) = (   0.3333333   0.2694301   0.1905159), wk =   0.0266667
        k(   21) = (   0.3333333   0.2694301   0.6804138), wk =   0.0266667
        k(   22) = (   0.3333333   0.2694301  -1.2791779), wk =   0.0266667
        k(   23) = (   0.3333333   0.2694301  -0.7892800), wk =   0.0266667
        k(   24) = (   0.3333333   0.7313103  -0.4626813), wk =   0.0266667
        k(   25) = (   0.3333333   0.7313103   0.0272166), wk =   0.0266667
        k(   26) = (   0.3333333   0.7313103   0.5171145), wk =   0.0266667
        k(   27) = (   0.3333333   0.7313103  -1.4424772), wk =   0.0266667
        k(   28) = (   0.3333333   0.7313103  -0.9525793), wk =   0.0266667
        k(   29) = (   0.3333333  -1.1162105   0.1905158), wk =   0.0266667
        k(   30) = (   0.3333333  -1.1162105   0.6804138), wk =   0.0266667
        k(   31) = (   0.3333333  -1.1162105   1.1703117), wk =   0.0266667
        k(   32) = (   0.3333333  -1.1162105  -0.7892800), wk =   0.0266667
        k(   33) = (   0.3333333  -1.1162105  -0.2993821), wk =   0.0266667
        k(   34) = (   0.3333333  -0.6543303   0.0272165), wk =   0.0266667
        k(   35) = (   0.3333333  -0.6543303   0.5171145), wk =   0.0266667
        k(   36) = (   0.3333333  -0.6543303   1.0070124), wk =   0.0266667
        k(   37) = (   0.3333333  -0.6543303  -0.9525793), wk =   0.0266667
        k(   38) = (   0.3333333  -0.6543303  -0.4626814), wk =   0.0266667

                       cryst. coord.
        k(    1) = (   0.0000000   0.0000000   0.0000000), wk =   0.0133333
        k(    2) = (   0.0000000   0.0000000   0.2000000), wk =   0.0266667
        k(    3) = (   0.0000000   0.0000000   0.4000000), wk =   0.0266667
        k(    4) = (   0.0000000   0.2000000   0.0000000), wk =   0.0266667
        k(    5) = (   0.0000000   0.2000000   0.2000000), wk =   0.0266667
        k(    6) = (   0.0000000   0.2000000   0.4000000), wk =   0.0266667
        k(    7) = (   0.0000000   0.2000000  -0.4000000), wk =   0.0266667
        k(    8) = (   0.0000000   0.2000000  -0.2000000), wk =   0.0266667
        k(    9) = (   0.0000000   0.4000000   0.0000000), wk =   0.0266667
        k(   10) = (   0.0000000   0.4000000   0.2000000), wk =   0.0266667
        k(   11) = (   0.0000000   0.4000000   0.4000000), wk =   0.0266667
        k(   12) = (   0.0000000   0.4000000  -0.4000000), wk =   0.0266667
        k(   13) = (   0.0000000   0.4000000  -0.2000000), wk =   0.0266667
        k(   14) = (   0.3333333  -0.0000000  -0.0000000), wk =   0.0266667
        k(   15) = (   0.3333333  -0.0000000   0.2000000), wk =   0.0266667
        k(   16) = (   0.3333333  -0.0000000   0.4000000), wk =   0.0266667
        k(   17) = (   0.3333333  -0.0000000  -0.4000000), wk =   0.0266667
        k(   18) = (   0.3333333  -0.0000000  -0.2000000), wk =   0.0266667
        k(   19) = (   0.3333333   0.2000000  -0.0000000), wk =   0.0266667
        k(   20) = (   0.3333333   0.2000000   0.2000000), wk =   0.0266667
        k(   21) = (   0.3333333   0.2000000   0.4000000), wk =   0.0266667
        k(   22) = (   0.3333333   0.2000000  -0.4000000), wk =   0.0266667
        k(   23) = (   0.3333333   0.2000000  -0.2000000), wk =   0.0266667
        k(   24) = (   0.3333333   0.4000000   0.0000000), wk =   0.0266667
        k(   25) = (   0.3333333   0.4000000   0.2000000), wk =   0.0266667
        k(   26) = (   0.3333333   0.4000000   0.4000000), wk =   0.0266667
        k(   27) = (   0.3333333   0.4000000  -0.4000000), wk =   0.0266667
        k(   28) = (   0.3333333   0.4000000  -0.2000000), wk =   0.0266667
        k(   29) = (   0.3333333  -0.4000000   0.0000000), wk =   0.0266667
        k(   30) = (   0.3333333  -0.4000000   0.2000000), wk =   0.0266667
        k(   31) = (   0.3333333  -0.4000000   0.4000000), wk =   0.0266667
        k(   32) = (   0.3333333  -0.4000000  -0.4000000), wk =   0.0266667
        k(   33) = (   0.3333333  -0.4000000  -0.2000000), wk =   0.0266667
        k(   34) = (   0.3333333  -0.2000000  -0.0000000), wk =   0.0266667
        k(   35) = (   0.3333333  -0.2000000   0.2000000), wk =   0.0266667
        k(   36) = (   0.3333333  -0.2000000   0.4000000), wk =   0.0266667
        k(   37) = (   0.3333333  -0.2000000  -0.4000000), wk =   0.0266667
        k(   38) = (   0.3333333  -0.2000000  -0.2000000), wk =   0.0266667

     Dense  grid:    17651 G-vectors     FFT dimensions: (  60,  30,  30)

     Smooth grid:    12697 G-vectors     FFT dimensions: (  54,  25,  25)

     Dynamical RAM for                 wfc:       0.15 MB

     Dynamical RAM for     wfc (w. buffer):      11.63 MB

     Dynamical RAM for           str. fact:       0.20 MB

     Dynamical RAM for           local pot:       0.00 MB

     Dynamical RAM for          nlocal pot:       0.44 MB

     Dynamical RAM for                qrad:       5.90 MB

     Dynamical RAM for          rho,v,vnew:       1.06 MB

     Dynamical RAM for               rhoin:       0.35 MB

     Dynamical RAM for            rho*nmix:       2.15 MB

     Dynamical RAM for           G-vectors:       0.28 MB

     Dynamical RAM for          h,s,v(r/c):       0.11 MB

     Dynamical RAM for          <psi|beta>:       0.03 MB

     Dynamical RAM for                 psi:       0.30 MB

     Dynamical RAM for                hpsi:       0.30 MB

     Dynamical RAM for                spsi:       0.30 MB

     Dynamical RAM for      wfcinit/wfcrot:       0.36 MB

     Dynamical RAM for           addusdens:      12.73 MB

     Dynamical RAM for          addusforce:      12.88 MB

     Dynamical RAM for         addusstress:      13.64 MB

     Estimated static dynamical RAM per process >      20.80 MB

     Estimated max dynamical RAM per process >      36.59 MB

     Estimated total dynamical RAM >     146.35 MB

     Check: negative core charge=   -0.000237
     Generating pointlists ...
     new r_m :   0.1246 (alat units)  1.8427 (a.u.) for type    1
     new r_m :   0.1246 (alat units)  1.8427 (a.u.) for type    2
     new r_m :   0.1246 (alat units)  1.8427 (a.u.) for type    3

     Initial potential from superposition of free atoms

     starting charge      41.9989, renormalised to      42.0000
     Starting wfcs are   28 randomized atomic wfcs
     Checking if some PAW data can be deallocated... 
       PAW data deallocated on    3 nodes for type:  1
       PAW data deallocated on    3 nodes for type:  2
       PAW data deallocated on    2 nodes for type:  3

     total cpu time spent up to now is        1.9 secs

     Self-consistent Calculation

     iteration #  1     ecut=    30.00 Ry     beta= 0.70
     Davidson diagonalization with overlap

---- Real-time Memory Report at c_bands before calling an iterative solver
            60 MiB given to the printing process from OS
             0 MiB allocation reported by mallinfo(arena+hblkhd)
          5032 MiB available memory on the node where the printing process lives
------------------
     ethr =  1.00E-02,  avg # of iterations =  2.0

     Threshold (ethr) on eigenvalues was too large:
     Diagonalizing with lowered threshold

     Davidson diagonalization with overlap

---- Real-time Memory Report at c_bands before calling an iterative solver
            68 MiB given to the printing process from OS
             0 MiB allocation reported by mallinfo(arena+hblkhd)
          4981 MiB available memory on the node where the printing process lives
------------------
     ethr =  2.84E-04,  avg # of iterations =  4.1

     total cpu time spent up to now is        7.1 secs

     total energy              =    -705.44520381 Ry
     estimated scf accuracy    <       0.09734534 Ry

     total magnetization       =     7.45 Bohr mag/cell
     absolute magnetization    =     7.45 Bohr mag/cell

     iteration #  2     ecut=    30.00 Ry     beta= 0.70
     Davidson diagonalization with overlap

---- Real-time Memory Report at c_bands before calling an iterative solver
            75 MiB given to the printing process from OS
             0 MiB allocation reported by mallinfo(arena+hblkhd)
          4969 MiB available memory on the node where the printing process lives
------------------
     ethr =  2.32E-04,  avg # of iterations =  2.4

     total cpu time spent up to now is        9.7 secs

     total energy              =    -705.46501962 Ry
     estimated scf accuracy    <       0.01557079 Ry

     total magnetization       =     7.70 Bohr mag/cell
     absolute magnetization    =     7.71 Bohr mag/cell

     iteration #  3     ecut=    30.00 Ry     beta= 0.70
     Davidson diagonalization with overlap

---- Real-time Memory Report at c_bands before calling an iterative solver
            75 MiB given to the printing process from OS
             0 MiB allocation reported by mallinfo(arena+hblkhd)
          4967 MiB available memory on the node where the printing process lives
------------------
     c_bands:  1 eigenvalues not converged
     c_bands:  1 eigenvalues not converged
     ethr =  3.71E-05,  avg # of iterations =  9.4

     total cpu time spent up to now is       13.9 secs

     total energy              =    -705.43075887 Ry
     estimated scf accuracy    <       0.70248174 Ry

     total magnetization       =     7.56 Bohr mag/cell
     absolute magnetization    =     7.66 Bohr mag/cell

     iteration #  4     ecut=    30.00 Ry     beta= 0.70
     Davidson diagonalization with overlap

---- Real-time Memory Report at c_bands before calling an iterative solver
            76 MiB given to the printing process from OS
             0 MiB allocation reported by mallinfo(arena+hblkhd)
          4964 MiB available memory on the node where the printing process lives
------------------
     ethr =  3.71E-05,  avg # of iterations =  9.7

     total cpu time spent up to now is       17.8 secs

     total energy              =    -705.46981181 Ry
     estimated scf accuracy    <       0.05690269 Ry

     total magnetization       =     7.74 Bohr mag/cell
     absolute magnetization    =     7.78 Bohr mag/cell

     iteration #  5     ecut=    30.00 Ry     beta= 0.70
     Davidson diagonalization with overlap

---- Real-time Memory Report at c_bands before calling an iterative solver
            76 MiB given to the printing process from OS
             0 MiB allocation reported by mallinfo(arena+hblkhd)
          4956 MiB available memory on the node where the printing process lives
------------------
     ethr =  3.71E-05,  avg # of iterations =  5.1

     total cpu time spent up to now is       20.6 secs

     total energy              =    -705.47396778 Ry
     estimated scf accuracy    <       0.00645269 Ry

     total magnetization       =     7.78 Bohr mag/cell
     absolute magnetization    =     7.83 Bohr mag/cell

     iteration #  6     ecut=    30.00 Ry     beta= 0.70
     Davidson diagonalization with overlap

---- Real-time Memory Report at c_bands before calling an iterative solver
            76 MiB given to the printing process from OS
             0 MiB allocation reported by mallinfo(arena+hblkhd)
          4954 MiB available memory on the node where the printing process lives
------------------
     ethr =  1.54E-05,  avg # of iterations =  3.5

     total cpu time spent up to now is       23.1 secs

     total energy              =    -705.47490770 Ry
     estimated scf accuracy    <       0.00031362 Ry

     total magnetization       =     7.78 Bohr mag/cell
     absolute magnetization    =     7.86 Bohr mag/cell

     iteration #  7     ecut=    30.00 Ry     beta= 0.70
     Davidson diagonalization with overlap

---- Real-time Memory Report at c_bands before calling an iterative solver
            77 MiB given to the printing process from OS
             0 MiB allocation reported by mallinfo(arena+hblkhd)
          4952 MiB available memory on the node where the printing process lives
------------------
     ethr =  7.47E-07,  avg # of iterations =  7.4

     total cpu time spent up to now is       26.6 secs

     total energy              =    -705.47509073 Ry
     estimated scf accuracy    <       0.00025699 Ry

     total magnetization       =     7.80 Bohr mag/cell
     absolute magnetization    =     7.89 Bohr mag/cell

     iteration #  8     ecut=    30.00 Ry     beta= 0.70
     Davidson diagonalization with overlap

---- Real-time Memory Report at c_bands before calling an iterative solver
            77 MiB given to the printing process from OS
             0 MiB allocation reported by mallinfo(arena+hblkhd)
          4947 MiB available memory on the node where the printing process lives
------------------
     ethr =  6.12E-07,  avg # of iterations =  3.4

     total cpu time spent up to now is       29.1 secs

     total energy              =    -705.47511896 Ry
     estimated scf accuracy    <       0.00002311 Ry

     total magnetization       =     7.81 Bohr mag/cell
     absolute magnetization    =     7.89 Bohr mag/cell

     iteration #  9     ecut=    30.00 Ry     beta= 0.70
     Davidson diagonalization with overlap

---- Real-time Memory Report at c_bands before calling an iterative solver
            77 MiB given to the printing process from OS
             0 MiB allocation reported by mallinfo(arena+hblkhd)
          4946 MiB available memory on the node where the printing process lives
------------------
     c_bands:  1 eigenvalues not converged
     ethr =  5.50E-08,  avg # of iterations =  6.2

     total cpu time spent up to now is       32.2 secs

     total energy              =    -705.47512739 Ry
     estimated scf accuracy    <       0.00000580 Ry

     total magnetization       =     7.81 Bohr mag/cell
     absolute magnetization    =     7.90 Bohr mag/cell

     iteration # 10     ecut=    30.00 Ry     beta= 0.70
     Davidson diagonalization with overlap

---- Real-time Memory Report at c_bands before calling an iterative solver
            78 MiB given to the printing process from OS
             0 MiB allocation reported by mallinfo(arena+hblkhd)
          4945 MiB available memory on the node where the printing process lives
------------------
     ethr =  1.38E-08,  avg # of iterations =  5.0

     total cpu time spent up to now is       35.1 secs

     total energy              =    -705.47512994 Ry
     estimated scf accuracy    <       0.00000136 Ry

     total magnetization       =     7.81 Bohr mag/cell
     absolute magnetization    =     7.90 Bohr mag/cell

     iteration # 11     ecut=    30.00 Ry     beta= 0.70
     Davidson diagonalization with overlap

---- Real-time Memory Report at c_bands before calling an iterative solver
            78 MiB given to the printing process from OS
             0 MiB allocation reported by mallinfo(arena+hblkhd)
          4945 MiB available memory on the node where the printing process lives
------------------
     ethr =  3.25E-09,  avg # of iterations =  3.7

     total cpu time spent up to now is       37.5 secs

     total energy              =    -705.47513030 Ry
     estimated scf accuracy    <       0.00000083 Ry

     total magnetization       =     7.81 Bohr mag/cell
     absolute magnetization    =     7.90 Bohr mag/cell

     iteration # 12     ecut=    30.00 Ry     beta= 0.70
     Davidson diagonalization with overlap

---- Real-time Memory Report at c_bands before calling an iterative solver
            78 MiB given to the printing process from OS
             0 MiB allocation reported by mallinfo(arena+hblkhd)
          4947 MiB available memory on the node where the printing process lives
------------------
     ethr =  1.98E-09,  avg # of iterations =  6.0

     total cpu time spent up to now is       40.6 secs

     total energy              =    -705.47513088 Ry
     estimated scf accuracy    <       0.00000024 Ry

     total magnetization       =     7.81 Bohr mag/cell
     absolute magnetization    =     7.90 Bohr mag/cell

     iteration # 13     ecut=    30.00 Ry     beta= 0.70
     Davidson diagonalization with overlap

---- Real-time Memory Report at c_bands before calling an iterative solver
            78 MiB given to the printing process from OS
             0 MiB allocation reported by mallinfo(arena+hblkhd)
          4945 MiB available memory on the node where the printing process lives
------------------
     ethr =  5.61E-10,  avg # of iterations =  5.8

     total cpu time spent up to now is       43.5 secs

     total energy              =    -705.47513107 Ry
     estimated scf accuracy    <       0.00000010 Ry

     total magnetization       =     7.81 Bohr mag/cell
     absolute magnetization    =     7.90 Bohr mag/cell

     iteration # 14     ecut=    30.00 Ry     beta= 0.70
     Davidson diagonalization with overlap

---- Real-time Memory Report at c_bands before calling an iterative solver
            78 MiB given to the printing process from OS
             0 MiB allocation reported by mallinfo(arena+hblkhd)
          4940 MiB available memory on the node where the printing process lives
------------------
     ethr =  2.45E-10,  avg # of iterations =  2.9

     total cpu time spent up to now is       45.9 secs

     total energy              =    -705.47513109 Ry
     estimated scf accuracy    <       0.00000002 Ry

     total magnetization       =     7.81 Bohr mag/cell
     absolute magnetization    =     7.90 Bohr mag/cell

     iteration # 15     ecut=    30.00 Ry     beta= 0.70
     Davidson diagonalization with overlap

---- Real-time Memory Report at c_bands before calling an iterative solver
            78 MiB given to the printing process from OS
             0 MiB allocation reported by mallinfo(arena+hblkhd)
          4940 MiB available memory on the node where the printing process lives
------------------
     c_bands:  1 eigenvalues not converged
     c_bands:  1 eigenvalues not converged
     ethr =  5.02E-11,  avg # of iterations =  8.1

     total cpu time spent up to now is       49.4 secs

     total energy              =    -705.47513112 Ry
     estimated scf accuracy    <          9.0E-09 Ry

     total magnetization       =     7.81 Bohr mag/cell
     absolute magnetization    =     7.90 Bohr mag/cell

     iteration # 16     ecut=    30.00 Ry     beta= 0.70
     Davidson diagonalization with overlap

---- Real-time Memory Report at c_bands before calling an iterative solver
            78 MiB given to the printing process from OS
             0 MiB allocation reported by mallinfo(arena+hblkhd)
          4941 MiB available memory on the node where the printing process lives
------------------
     ethr =  2.14E-11,  avg # of iterations =  6.0

     total cpu time spent up to now is       52.6 secs

     total energy              =    -705.47513114 Ry
     estimated scf accuracy    <          4.1E-09 Ry

     total magnetization       =     7.81 Bohr mag/cell
     absolute magnetization    =     7.90 Bohr mag/cell

     iteration # 17     ecut=    30.00 Ry     beta= 0.70
     Davidson diagonalization with overlap

---- Real-time Memory Report at c_bands before calling an iterative solver
            78 MiB given to the printing process from OS
             0 MiB allocation reported by mallinfo(arena+hblkhd)
          4939 MiB available memory on the node where the printing process lives
------------------
     ethr =  9.86E-12,  avg # of iterations =  6.8

     total cpu time spent up to now is       55.9 secs

     total energy              =    -705.47513114 Ry
     estimated scf accuracy    <          5.9E-10 Ry

     total magnetization       =     7.81 Bohr mag/cell
     absolute magnetization    =     7.90 Bohr mag/cell

     iteration # 18     ecut=    30.00 Ry     beta= 0.70
     Davidson diagonalization with overlap

---- Real-time Memory Report at c_bands before calling an iterative solver
            78 MiB given to the printing process from OS
             0 MiB allocation reported by mallinfo(arena+hblkhd)
          4939 MiB available memory on the node where the printing process lives
------------------
     ethr =  1.40E-12,  avg # of iterations =  6.4

     total cpu time spent up to now is       59.2 secs

     total energy              =    -705.47513114 Ry
     estimated scf accuracy    <          5.0E-10 Ry

     total magnetization       =     7.81 Bohr mag/cell
     absolute magnetization    =     7.90 Bohr mag/cell

     iteration # 19     ecut=    30.00 Ry     beta= 0.70
     Davidson diagonalization with overlap

---- Real-time Memory Report at c_bands before calling an iterative solver
            78 MiB given to the printing process from OS
             0 MiB allocation reported by mallinfo(arena+hblkhd)
          4934 MiB available memory on the node where the printing process lives
------------------
     ethr =  1.18E-12,  avg # of iterations =  5.1

     Magnetic moment per site  (integrated on atomic sphere of radius R)
     atom   1 (R=0.125)  charge= 12.8568  magn=  3.4627
     atom   2 (R=0.125)  charge= 12.8568  magn=  3.4627
     atom   3 (R=0.125)  charge=  4.0108  magn= -0.0028
     atom   4 (R=0.125)  charge=  4.0108  magn= -0.0028

     total cpu time spent up to now is       62.1 secs

     End of self-consistent calculation

 ------ SPIN UP ------------


          k = 0.0000 0.0000 0.0000 (  1617 PWs)   bands (ev):

   -74.2086 -74.2080 -42.9383 -42.9381 -42.9325 -42.9322 -42.9239 -42.9207
    -6.3622  -5.6593   1.9301   2.9279   2.9737   2.9842   3.2296   3.2305
     4.8732   4.8842   5.0481   5.0547   5.3412   7.1896   7.1961   8.2899
     8.3044

     occupation numbers 
     1.0000   1.0000   1.0000   1.0000   1.0000   1.0000   1.0000   1.0000
     1.0000   1.0000   1.0000   1.0000   1.0000   1.0000   1.0000   1.0000
     1.0000   1.0000   1.0000   1.0000   1.0000   1.0000   1.0000   0.0002
     0.0001

          k = 0.0000 0.0000 0.4899 (  1600 PWs)   bands (ev):

   -74.2082 -74.2080 -42.9393 -42.9389 -42.9329 -42.9320 -42.9233 -42.9207
    -6.1407  -5.5899   2.1451   2.6048   3.0368   3.0549   3.0635   3.3306
     4.8935   4.9058   4.9234   5.0637   5.4258   6.5723   6.7464   6.8970
     7.9965

     occupation numbers 
     1.0000   1.0000   1.0000   1.0000   1.0000   1.0000   1.0000   1.0000
     1.0000   1.0000   1.0000   1.0000   1.0000   1.0000   1.0000   1.0000
     1.0000   1.0000   1.0000   1.0000   1.0000   1.0000   1.0000   1.0000
     0.3204

          k = 0.0000 0.0000 0.9798 (  1578 PWs)   bands (ev):

   -74.2080 -74.2078 -42.9405 -42.9402 -42.9331 -42.9324 -42.9223 -42.9212
    -5.7438  -5.4645   1.9055   2.0615   3.1381   3.1436   3.4582   3.5670
     4.8700   4.9970   5.0347   5.2180   5.4389   5.5904   6.1031   6.1148
     7.4216

     occupation numbers 
     1.0000   1.0000   1.0000   1.0000   1.0000   1.0000   1.0000   1.0000
     1.0000   1.0000   1.0000   1.0000   1.0000   1.0000   1.0000   1.0000
     1.0000   1.0000   1.0000   1.0000   1.0000   1.0000   1.0000   1.0000
     1.0000

          k = 0.0000 0.4619-0.1633 (  1600 PWs)   bands (ev):

   -74.2082 -74.2081 -42.9389 -42.9382 -42.9332 -42.9327 -42.9233 -42.9207
    -6.1403  -5.5899   2.1472   2.5947   3.0433   3.0491   3.0730   3.3330
     4.8995   4.9090   4.9189   5.0580   5.4277   6.5709   6.7451   6.8996
     7.9843

     occupation numbers 
     1.0000   1.0000   1.0000   1.0000   1.0000   1.0000   1.0000   1.0000
     1.0000   1.0000   1.0000   1.0000   1.0000   1.0000   1.0000   1.0000
     1.0000   1.0000   1.0000   1.0000   1.0000   1.0000   1.0000   1.0000
     0.3671

          k = 0.0000 0.4619 0.3266 (  1598 PWs)   bands (ev):

   -74.2082 -74.2080 -42.9387 -42.9384 -42.9331 -42.9327 -42.9230 -42.9211
    -6.0667  -5.6764   2.2807   2.4821   2.9626   3.0996   3.1444   3.2720
     4.7739   4.8571   4.9938   5.0592   5.7529   6.3207   7.2331   7.3158
     7.4242

     occupation numbers 
     1.0000   1.0000   1.0000   1.0000   1.0000   1.0000   1.0000   1.0000
     1.0000   1.0000   1.0000   1.0000   1.0000   1.0000   1.0000   1.0000
     1.0000   1.0000   1.0000   1.0000   1.0000   1.0000   1.0000   1.0000
     1.0000

          k = 0.0000 0.4619 0.8165 (  1588 PWs)   bands (ev):

   -74.2081 -74.2079 -42.9397 -42.9396 -42.9333 -42.9331 -42.9221 -42.9217
    -5.7237  -5.6001   2.1693   2.1775   3.0963   3.1400   3.2285   3.3648
     4.8273   4.8584   5.1087   5.1095   5.6395   5.8589   6.2712   6.8088
     6.8989

     occupation numbers 
     1.0000   1.0000   1.0000   1.0000   1.0000   1.0000   1.0000   1.0000
     1.0000   1.0000   1.0000   1.0000   1.0000   1.0000   1.0000   1.0000
     1.0000   1.0000   1.0000   1.0000   1.0000   1.0000   1.0000   1.0000
     1.0000

          k = 0.0000 0.4619-1.1431 (  1573 PWs)   bands (ev):

   -74.2079 -74.2078 -42.9404 -42.9402 -42.9336 -42.9330 -42.9220 -42.9215
    -5.5801  -5.4632   2.1431   2.2524   2.8953   3.1182   3.2773   3.5080
     4.8848   5.0094   5.0279   5.1002   5.3591   5.4909   5.9058   6.4141
     6.4158

     occupation numbers 
     1.0000   1.0000   1.0000   1.0000   1.0000   1.0000   1.0000   1.0000
     1.0000   1.0000   1.0000   1.0000   1.0000   1.0000   1.0000   1.0000
     1.0000   1.0000   1.0000   1.0000   1.0000   1.0000   1.0000   1.0000
     1.0000

          k = 0.0000 0.4619-0.6532 (  1585 PWs)   bands (ev):

   -74.2081 -74.2078 -42.9397 -42.9396 -42.9333 -42.9330 -42.9228 -42.9210
    -5.8565  -5.4590   2.3691   2.5082   2.6934   2.9832   3.1568   3.5282
     4.8402   4.8626   5.0272   5.0935   5.3952   5.7873   6.2872   6.4874
     6.6497

     occupation numbers 
     1.0000   1.0000   1.0000   1.0000   1.0000   1.0000   1.0000   1.0000
     1.0000   1.0000   1.0000   1.0000   1.0000   1.0000   1.0000   1.0000
     1.0000   1.0000   1.0000   1.0000   1.0000   1.0000   1.0000   1.0000
     1.0000

          k = 0.0000 0.9238-0.3266 (  1578 PWs)   bands (ev):

   -74.2080 -74.2078 -42.9393 -42.9391 -42.9339 -42.9339 -42.9224 -42.9212
    -5.7425  -5.4644   1.9069   2.0544   3.1470   3.1568   3.4452   3.5768
     4.8765   5.0023   5.0295   5.2100   5.4445   5.5846   6.0925   6.1206
     7.4044

     occupation numbers 
     1.0000   1.0000   1.0000   1.0000   1.0000   1.0000   1.0000   1.0000
     1.0000   1.0000   1.0000   1.0000   1.0000   1.0000   1.0000   1.0000
     1.0000   1.0000   1.0000   1.0000   1.0000   1.0000   1.0000   1.0000
     1.0000

          k = 0.0000 0.9238 0.1633 (  1588 PWs)   bands (ev):

   -74.2081 -74.2079 -42.9389 -42.9388 -42.9340 -42.9340 -42.9221 -42.9216
    -5.7229  -5.6000   2.1689   2.1731   3.0999   3.1496   3.2355   3.3617
     4.8253   4.8612   5.1042   5.1081   5.6361   5.8513   6.2758   6.8089
     6.8881

     occupation numbers 
     1.0000   1.0000   1.0000   1.0000   1.0000   1.0000   1.0000   1.0000
     1.0000   1.0000   1.0000   1.0000   1.0000   1.0000   1.0000   1.0000
     1.0000   1.0000   1.0000   1.0000   1.0000   1.0000   1.0000   1.0000
     1.0000

          k = 0.0000 0.9238 0.6532 (  1582 PWs)   bands (ev):

   -74.2080 -74.2079 -42.9393 -42.9391 -42.9339 -42.9339 -42.9222 -42.9215
    -5.6728  -5.5390   1.8912   2.0732   3.0974   3.1896   3.4584   3.5288
     4.7616   5.0148   5.0583   5.1573   5.4712   5.8442   6.1900   6.2819
     6.9714

     occupation numbers 
     1.0000   1.0000   1.0000   1.0000   1.0000   1.0000   1.0000   1.0000
     1.0000   1.0000   1.0000   1.0000   1.0000   1.0000   1.0000   1.0000
     1.0000   1.0000   1.0000   1.0000   1.0000   1.0000   1.0000   1.0000
     1.0000

          k = 0.0000 0.9238-1.3064 (  1588 PWs)   bands (ev):

   -74.2080 -74.2079 -42.9397 -42.9395 -42.9342 -42.9341 -42.9222 -42.9214
    -5.5921  -5.4487   2.0650   2.1651   2.9541   3.2709   3.2788   3.4568
     4.8159   4.9982   5.0504   5.0778   5.3572   5.3786   5.9585   6.3254
     6.6101

     occupation numbers 
     1.0000   1.0000   1.0000   1.0000   1.0000   1.0000   1.0000   1.0000
     1.0000   1.0000   1.0000   1.0000   1.0000   1.0000   1.0000   1.0000
     1.0000   1.0000   1.0000   1.0000   1.0000   1.0000   1.0000   1.0000
     1.0000

          k = 0.0000 0.9238-0.8165 (  1573 PWs)   bands (ev):

   -74.2079 -74.2078 -42.9395 -42.9395 -42.9342 -42.9340 -42.9220 -42.9214
    -5.5792  -5.4632   2.1423   2.2455   2.9065   3.1227   3.2838   3.5046
     4.8827   5.0078   5.0255   5.0961   5.3635   5.4893   5.9045   6.4110
     6.4167

     occupation numbers 
     1.0000   1.0000   1.0000   1.0000   1.0000   1.0000   1.0000   1.0000
     1.0000   1.0000   1.0000   1.0000   1.0000   1.0000   1.0000   1.0000
     1.0000   1.0000   1.0000   1.0000   1.0000   1.0000   1.0000   1.0000
     1.0000

          k = 0.3333-0.1925-0.1361 (  1605 PWs)   bands (ev):

   -74.2083 -74.2082 -42.9384 -42.9379 -42.9325 -42.9320 -42.9231 -42.9213
    -6.2011  -5.8523   2.1651   2.6576   3.0649   3.0731   3.1747   3.1772
     4.9010   4.9116   4.9285   4.9366   5.9186   7.2355   7.4810   7.4827
     8.0476

     occupation numbers 
     1.0000   1.0000   1.0000   1.0000   1.0000   1.0000   1.0000   1.0000
     1.0000   1.0000   1.0000   1.0000   1.0000   1.0000   1.0000   1.0000
     1.0000   1.0000   1.0000   1.0000   1.0000   1.0000   1.0000   1.0000
     0.1592

          k = 0.3333-0.1925 0.3538 (  1594 PWs)   bands (ev):

   -74.2083 -74.2079 -42.9392 -42.9388 -42.9325 -42.9324 -42.9231 -42.9209
    -6.1067  -5.6308   2.2651   2.5449   2.9452   3.0717   3.1069   3.3004
     4.7905   4.9137   4.9883   5.0394   5.6407   6.3056   7.2046   7.2552
     7.5513

     occupation numbers 
     1.0000   1.0000   1.0000   1.0000   1.0000   1.0000   1.0000   1.0000
     1.0000   1.0000   1.0000   1.0000   1.0000   1.0000   1.0000   1.0000
     1.0000   1.0000   1.0000   1.0000   1.0000   1.0000   1.0000   1.0000
     1.0000

          k = 0.3333-0.1925 0.8437 (  1583 PWs)   bands (ev):

   -74.2080 -74.2078 -42.9404 -42.9402 -42.9329 -42.9326 -42.9224 -42.9213
    -5.7436  -5.4708   2.1975   2.2569   2.9845   3.0751   3.2099   3.4420
     4.8261   4.8609   5.0577   5.1239   5.4556   5.8383   5.9853   6.4939
     7.0009

     occupation numbers 
     1.0000   1.0000   1.0000   1.0000   1.0000   1.0000   1.0000   1.0000
     1.0000   1.0000   1.0000   1.0000   1.0000   1.0000   1.0000   1.0000
     1.0000   1.0000   1.0000   1.0000   1.0000   1.0000   1.0000   1.0000
     1.0000

          k = 0.3333-0.1925-1.1159 (  1581 PWs)   bands (ev):

   -74.2080 -74.2079 -42.9405 -42.9401 -42.9330 -42.9325 -42.9219 -42.9218
    -5.6117  -5.6054   1.9783   2.1863   2.9597   3.2404   3.3677   3.4314
     4.7537   5.0232   5.0263   5.1885   5.4536   5.9836   6.3676   6.4329
     6.5770

     occupation numbers 
     1.0000   1.0000   1.0000   1.0000   1.0000   1.0000   1.0000   1.0000
     1.0000   1.0000   1.0000   1.0000   1.0000   1.0000   1.0000   1.0000
     1.0000   1.0000   1.0000   1.0000   1.0000   1.0000   1.0000   1.0000
     1.0000

          k = 0.3333-0.1925-0.6260 (  1602 PWs)   bands (ev):

   -74.2082 -74.2081 -42.9392 -42.9390 -42.9327 -42.9322 -42.9221 -42.9219
    -5.9151  -5.8398   2.2331   2.3753   3.0448   3.1602   3.1835   3.2448
     4.7392   4.8434   5.0160   5.0623   6.3335   6.3993   6.8292   6.9507
     7.1350

     occupation numbers 
     1.0000   1.0000   1.0000   1.0000   1.0000   1.0000   1.0000   1.0000
     1.0000   1.0000   1.0000   1.0000   1.0000   1.0000   1.0000   1.0000
     1.0000   1.0000   1.0000   1.0000   1.0000   1.0000   1.0000   1.0000
     1.0000

          k = 0.3333 0.2694-0.2994 (  1594 PWs)   bands (ev):

   -74.2083 -74.2079 -42.9386 -42.9384 -42.9331 -42.9327 -42.9231 -42.9209
    -6.1066  -5.6304   2.2652   2.5457   2.9482   3.0629   3.1153   3.3035
     4.7979   4.9081   4.9800   5.0417   5.6370   6.3026   7.2021   7.2612
     7.5408

     occupation numbers 
     1.0000   1.0000   1.0000   1.0000   1.0000   1.0000   1.0000   1.0000
     1.0000   1.0000   1.0000   1.0000   1.0000   1.0000   1.0000   1.0000
     1.0000   1.0000   1.0000   1.0000   1.0000   1.0000   1.0000   1.0000
     1.0000

          k = 0.3333 0.2694 0.1905 (  1598 PWs)   bands (ev):

   -74.2083 -74.2080 -42.9388 -42.9382 -42.9331 -42.9327 -42.9235 -42.9206
    -6.1571  -5.5698   2.1679   2.6251   3.0174   3.0237   3.0680   3.3456
     4.8869   4.9137   4.9348   5.0494   5.3747   6.4903   6.8068   6.9927
     7.9342

     occupation numbers 
     1.0000   1.0000   1.0000   1.0000   1.0000   1.0000   1.0000   1.0000
     1.0000   1.0000   1.0000   1.0000   1.0000   1.0000   1.0000   1.0000
     1.0000   1.0000   1.0000   1.0000   1.0000   1.0000   1.0000   1.0000
     0.5719

          k = 0.3333 0.2694 0.6804 (  1583 PWs)   bands (ev):

   -74.2082 -74.2077 -42.9396 -42.9396 -42.9333 -42.9330 -42.9227 -42.9211
    -5.8527  -5.4633   2.3567   2.4694   2.7423   2.9857   3.1586   3.5274
     4.8249   4.8946   5.0298   5.0682   5.4290   5.8088   6.2542   6.5172
     6.6651

     occupation numbers 
     1.0000   1.0000   1.0000   1.0000   1.0000   1.0000   1.0000   1.0000
     1.0000   1.0000   1.0000   1.0000   1.0000   1.0000   1.0000   1.0000
     1.0000   1.0000   1.0000   1.0000   1.0000   1.0000   1.0000   1.0000
     1.0000

          k = 0.3333 0.2694-1.2792 (  1576 PWs)   bands (ev):

   -74.2079 -74.2078 -42.9404 -42.9402 -42.9336 -42.9331 -42.9220 -42.9215
    -5.5873  -5.4550   2.1051   2.2080   2.9271   3.1903   3.2618   3.5006
     4.8634   5.0084   5.0301   5.1160   5.3582   5.4335   5.9405   6.3779
     6.5176

     occupation numbers 
     1.0000   1.0000   1.0000   1.0000   1.0000   1.0000   1.0000   1.0000
     1.0000   1.0000   1.0000   1.0000   1.0000   1.0000   1.0000   1.0000
     1.0000   1.0000   1.0000   1.0000   1.0000   1.0000   1.0000   1.0000
     1.0000

          k = 0.3333 0.2694-0.7893 (  1589 PWs)   bands (ev):

   -74.2081 -74.2079 -42.9397 -42.9396 -42.9333 -42.9331 -42.9223 -42.9216
    -5.7611  -5.5614   2.2031   2.2057   3.0463   3.1092   3.2102   3.4107
     4.8139   4.8831   5.0847   5.0959   5.6016   5.9374   6.0862   6.7474
     6.8914

     occupation numbers 
     1.0000   1.0000   1.0000   1.0000   1.0000   1.0000   1.0000   1.0000
     1.0000   1.0000   1.0000   1.0000   1.0000   1.0000   1.0000   1.0000
     1.0000   1.0000   1.0000   1.0000   1.0000   1.0000   1.0000   1.0000
     1.0000

          k = 0.3333 0.7313-0.4627 (  1583 PWs)   bands (ev):

   -74.2080 -74.2078 -42.9393 -42.9390 -42.9340 -42.9338 -42.9225 -42.9213
    -5.7428  -5.4703   2.1936   2.2602   2.9800   3.0786   3.2201   3.4505
     4.8264   4.8654   5.0514   5.1171   5.4530   5.8359   5.9891   6.4825
     6.9854

     occupation numbers 
     1.0000   1.0000   1.0000   1.0000   1.0000   1.0000   1.0000   1.0000
     1.0000   1.0000   1.0000   1.0000   1.0000   1.0000   1.0000   1.0000
     1.0000   1.0000   1.0000   1.0000   1.0000   1.0000   1.0000   1.0000
     1.0000

          k = 0.3333 0.7313 0.0272 (  1583 PWs)   bands (ev):

   -74.2082 -74.2077 -42.9389 -42.9387 -42.9340 -42.9339 -42.9227 -42.9210
    -5.8520  -5.4632   2.3506   2.4724   2.7399   2.9910   3.1693   3.5278
     4.8311   4.8941   5.0311   5.0595   5.4247   5.8082   6.2514   6.5185
     6.6521

     occupation numbers 
     1.0000   1.0000   1.0000   1.0000   1.0000   1.0000   1.0000   1.0000
     1.0000   1.0000   1.0000   1.0000   1.0000   1.0000   1.0000   1.0000
     1.0000   1.0000   1.0000   1.0000   1.0000   1.0000   1.0000   1.0000
     1.0000

          k = 0.3333 0.7313 0.5171 (  1587 PWs)   bands (ev):

   -74.2081 -74.2079 -42.9392 -42.9391 -42.9340 -42.9339 -42.9223 -42.9216
    -5.6996  -5.5170   2.1458   2.3596   2.8226   3.1501   3.2925   3.3717
     4.8030   4.8735   5.0304   5.1262   5.4931   5.9252   6.1121   6.7096
     6.7628

     occupation numbers 
     1.0000   1.0000   1.0000   1.0000   1.0000   1.0000   1.0000   1.0000
     1.0000   1.0000   1.0000   1.0000   1.0000   1.0000   1.0000   1.0000
     1.0000   1.0000   1.0000   1.0000   1.0000   1.0000   1.0000   1.0000
     1.0000

          k = 0.3333 0.7313-1.4425 (  1573 PWs)   bands (ev):

   -74.2079 -74.2078 -42.9397 -42.9393 -42.9342 -42.9339 -42.9219 -42.9216
    -5.5582  -5.4868   2.2601   2.3610   2.7998   2.9538   3.3238   3.4883
     4.9373   4.9437   5.0219   5.0545   5.4744   5.5595   5.8592   6.1609
     6.5453

     occupation numbers 
     1.0000   1.0000   1.0000   1.0000   1.0000   1.0000   1.0000   1.0000
     1.0000   1.0000   1.0000   1.0000   1.0000   1.0000   1.0000   1.0000
     1.0000   1.0000   1.0000   1.0000   1.0000   1.0000   1.0000   1.0000
     1.0000

          k = 0.3333 0.7313-0.9526 (  1579 PWs)   bands (ev):

   -74.2079 -74.2079 -42.9397 -42.9394 -42.9342 -42.9339 -42.9218 -42.9218
    -5.5306  -5.5160   2.3853   2.4194   2.7509   2.7939   3.3911   3.4258
     4.9139   4.9173   5.0181   5.0235   5.6036   5.6088   5.8572   5.9343
     6.7105

     occupation numbers 
     1.0000   1.0000   1.0000   1.0000   1.0000   1.0000   1.0000   1.0000
     1.0000   1.0000   1.0000   1.0000   1.0000   1.0000   1.0000   1.0000
     1.0000   1.0000   1.0000   1.0000   1.0000   1.0000   1.0000   1.0000
     1.0000

          k = 0.3333-1.1162 0.1905 (  1581 PWs)   bands (ev):

   -74.2080 -74.2079 -42.9392 -42.9391 -42.9339 -42.9338 -42.9219 -42.9218
    -5.6105  -5.6052   1.9792   2.1806   2.9717   3.2493   3.3580   3.4420
     4.7583   5.0163   5.0281   5.1805   5.4502   5.9862   6.3549   6.4409
     6.5673

     occupation numbers 
     1.0000   1.0000   1.0000   1.0000   1.0000   1.0000   1.0000   1.0000
     1.0000   1.0000   1.0000   1.0000   1.0000   1.0000   1.0000   1.0000
     1.0000   1.0000   1.0000   1.0000   1.0000   1.0000   1.0000   1.0000
     1.0000

          k = 0.3333-1.1162 0.6804 (  1576 PWs)   bands (ev):

   -74.2079 -74.2078 -42.9397 -42.9394 -42.9342 -42.9340 -42.9220 -42.9215
    -5.5862  -5.4552   2.1045   2.2024   2.9341   3.1940   3.2752   3.4922
     4.8648   5.0069   5.0300   5.1112   5.3649   5.4274   5.9398   6.3837
     6.5051

     occupation numbers 
     1.0000   1.0000   1.0000   1.0000   1.0000   1.0000   1.0000   1.0000
     1.0000   1.0000   1.0000   1.0000   1.0000   1.0000   1.0000   1.0000
     1.0000   1.0000   1.0000   1.0000   1.0000   1.0000   1.0000   1.0000
     1.0000

          k = 0.3333-1.1162 1.1703 (  1573 PWs)   bands (ev):

   -74.2079 -74.2078 -42.9395 -42.9394 -42.9342 -42.9339 -42.9219 -42.9217
    -5.5586  -5.4864   2.2588   2.3591   2.8028   2.9578   3.3168   3.4926
     4.9377   4.9405   5.0238   5.0492   5.4720   5.5650   5.8574   6.1691
     6.5436

     occupation numbers 
     1.0000   1.0000   1.0000   1.0000   1.0000   1.0000   1.0000   1.0000
     1.0000   1.0000   1.0000   1.0000   1.0000   1.0000   1.0000   1.0000
     1.0000   1.0000   1.0000   1.0000   1.0000   1.0000   1.0000   1.0000
     1.0000

          k = 0.3333-1.1162-0.7893 (  1577 PWs)   bands (ev):

   -74.2080 -74.2078 -42.9393 -42.9390 -42.9340 -42.9338 -42.9225 -42.9211
    -5.7617  -5.4454   2.0070   2.1174   3.1250   3.1641   3.3194   3.5510
     4.8739   4.9513   5.0702   5.1375   5.3347   5.6860   6.0393   6.1737
     7.3256

     occupation numbers 
     1.0000   1.0000   1.0000   1.0000   1.0000   1.0000   1.0000   1.0000
     1.0000   1.0000   1.0000   1.0000   1.0000   1.0000   1.0000   1.0000
     1.0000   1.0000   1.0000   1.0000   1.0000   1.0000   1.0000   1.0000
     1.0000

          k = 0.3333-1.1162-0.2994 (  1580 PWs)   bands (ev):

   -74.2081 -74.2078 -42.9389 -42.9387 -42.9340 -42.9339 -42.9224 -42.9212
    -5.7925  -5.5268   2.2422   2.2549   2.9826   3.0891   3.2135   3.4490
     4.8347   4.9057   5.0504   5.0933   5.5727   5.9494   6.0319   6.6753
     6.8531

     occupation numbers 
     1.0000   1.0000   1.0000   1.0000   1.0000   1.0000   1.0000   1.0000
     1.0000   1.0000   1.0000   1.0000   1.0000   1.0000   1.0000   1.0000
     1.0000   1.0000   1.0000   1.0000   1.0000   1.0000   1.0000   1.0000
     1.0000

          k = 0.3333-0.6543 0.0272 (  1602 PWs)   bands (ev):

   -74.2082 -74.2081 -42.9387 -42.9384 -42.9330 -42.9330 -42.9222 -42.9219
    -5.9145  -5.8399   2.2355   2.3692   3.0535   3.1671   3.1718   3.2504
     4.7467   4.8357   5.0221   5.0549   6.3399   6.3941   6.8230   6.9455
     7.1387

     occupation numbers 
     1.0000   1.0000   1.0000   1.0000   1.0000   1.0000   1.0000   1.0000
     1.0000   1.0000   1.0000   1.0000   1.0000   1.0000   1.0000   1.0000
     1.0000   1.0000   1.0000   1.0000   1.0000   1.0000   1.0000   1.0000
     1.0000

          k = 0.3333-0.6543 0.5171 (  1589 PWs)   bands (ev):

   -74.2081 -74.2079 -42.9397 -42.9396 -42.9332 -42.9331 -42.9223 -42.9215
    -5.7605  -5.5619   2.2018   2.2050   3.0400   3.1101   3.2218   3.4047
     4.8062   4.8915   5.0810   5.1032   5.6070   5.9356   6.0889   6.7522
     6.8842

     occupation numbers 
     1.0000   1.0000   1.0000   1.0000   1.0000   1.0000   1.0000   1.0000
     1.0000   1.0000   1.0000   1.0000   1.0000   1.0000   1.0000   1.0000
     1.0000   1.0000   1.0000   1.0000   1.0000   1.0000   1.0000   1.0000
     1.0000

          k = 0.3333-0.6543 1.0070 (  1579 PWs)   bands (ev):

   -74.2079 -74.2079 -42.9403 -42.9403 -42.9334 -42.9332 -42.9219 -42.9218
    -5.5313  -5.5161   2.3853   2.4224   2.7452   2.7932   3.3832   3.4250
     4.9121   4.9192   5.0220   5.0221   5.6066   5.6167   5.8571   5.9411
     6.7110

     occupation numbers 
     1.0000   1.0000   1.0000   1.0000   1.0000   1.0000   1.0000   1.0000
     1.0000   1.0000   1.0000   1.0000   1.0000   1.0000   1.0000   1.0000
     1.0000   1.0000   1.0000   1.0000   1.0000   1.0000   1.0000   1.0000
     1.0000

          k = 0.3333-0.6543-0.9526 (  1580 PWs)   bands (ev):

   -74.2080 -74.2078 -42.9397 -42.9395 -42.9332 -42.9331 -42.9224 -42.9212
    -5.7928  -5.5273   2.2438   2.2564   2.9757   3.0840   3.2124   3.4456
     4.8270   4.9127   5.0497   5.1038   5.5805   5.9472   6.0372   6.6783
     6.8578

     occupation numbers 
     1.0000   1.0000   1.0000   1.0000   1.0000   1.0000   1.0000   1.0000
     1.0000   1.0000   1.0000   1.0000   1.0000   1.0000   1.0000   1.0000
     1.0000   1.0000   1.0000   1.0000   1.0000   1.0000   1.0000   1.0000
     1.0000

          k = 0.3333-0.6543-0.4627 (  1599 PWs)   bands (ev):

   -74.2082 -74.2081 -42.9387 -42.9384 -42.9331 -42.9329 -42.9225 -42.9215
    -5.9736  -5.7780   2.1906   2.4105   3.0623   3.1416   3.1622   3.2777
     4.7607   4.8567   5.0296   5.0786   6.0936   6.5082   6.8612   7.0178
     7.0940

     occupation numbers 
     1.0000   1.0000   1.0000   1.0000   1.0000   1.0000   1.0000   1.0000
     1.0000   1.0000   1.0000   1.0000   1.0000   1.0000   1.0000   1.0000
     1.0000   1.0000   1.0000   1.0000   1.0000   1.0000   1.0000   1.0000
     1.0000

 ------ SPIN DOWN ----------


          k = 0.0000 0.0000 0.0000 (  1617 PWs)   bands (ev):

   -70.3068 -70.3062 -39.1804 -39.1757 -39.0421 -39.0416 -39.0358 -39.0354
    -6.2419  -5.5770   2.2596   3.9856   4.1410   4.1642   4.2777   4.2905
     8.1930   8.4221   8.4239   8.5612   8.5716   9.5491   9.5673   9.7106
    10.5382

     occupation numbers 
     1.0000   1.0000   1.0000   1.0000   1.0000   1.0000   1.0000   1.0000
     1.0000   1.0000   1.0000   1.0000   1.0000   1.0000   1.0000   1.0000
     0.0061   0.0000   0.0000   0.0000   0.0000   0.0000   0.0000   0.0000
     0.0000

          k = 0.0000 0.0000 0.4899 (  1600 PWs)   bands (ev):

   -70.3065 -70.3063 -39.1796 -39.1757 -39.0433 -39.0429 -39.0364 -39.0353
    -6.0318  -5.5114   2.5569   3.4205   3.8488   4.0656   4.1787   4.2357
     7.8462   8.3861   8.3903   8.4008   8.5823   9.3758   9.5031   9.5654
    10.2938

     occupation numbers 
     1.0000   1.0000   1.0000   1.0000   1.0000   1.0000   1.0000   1.0000
     1.0000   1.0000   1.0000   1.0000   1.0000   1.0000   1.0000   1.0000
     0.8633   0.0000   0.0000   0.0000   0.0000   0.0000   0.0000   0.0000
     0.0000

          k = 0.0000 0.0000 0.9798 (  1578 PWs)   bands (ev):

   -70.3063 -70.3060 -39.1785 -39.1764 -39.0454 -39.0446 -39.0367 -39.0358
    -5.6560  -5.3936   2.4777   2.4975   3.9580   4.1248   4.1782   4.2088
     7.4268   8.4064   8.4740   8.5294   8.6187   8.7900   9.0918   9.1135
     9.6864

     occupation numbers 
     1.0000   1.0000   1.0000   1.0000   1.0000   1.0000   1.0000   1.0000
     1.0000   1.0000   1.0000   1.0000   1.0000   1.0000   1.0000   1.0000
     1.0000   0.0000   0.0000   0.0000   0.0000   0.0000   0.0000   0.0000
     0.0000

          k = 0.0000 0.4619-0.1633 (  1600 PWs)   bands (ev):

   -70.3065 -70.3063 -39.1795 -39.1758 -39.0428 -39.0419 -39.0369 -39.0362
    -6.0314  -5.5114   2.5552   3.4118   3.8404   4.0639   4.1968   4.2471
     7.8388   8.3816   8.3906   8.4005   8.5894   9.3839   9.4955   9.5615
    10.2765

     occupation numbers 
     1.0000   1.0000   1.0000   1.0000   1.0000   1.0000   1.0000   1.0000
     1.0000   1.0000   1.0000   1.0000   1.0000   1.0000   1.0000   1.0000
     0.8795   0.0000   0.0000   0.0000   0.0000   0.0000   0.0000   0.0000
     0.0000

          k = 0.0000 0.4619 0.3266 (  1598 PWs)   bands (ev):

   -70.3064 -70.3063 -39.1791 -39.1764 -39.0425 -39.0422 -39.0368 -39.0362
    -5.9617  -5.5930   2.7185   3.3335   3.7362   4.0508   4.1593   4.2949
     8.0339   8.1351   8.2207   8.6035   8.7188   9.2176   9.8251   9.8982
     9.9518

     occupation numbers 
     1.0000   1.0000   1.0000   1.0000   1.0000   1.0000   1.0000   1.0000
     1.0000   1.0000   1.0000   1.0000   1.0000   1.0000   1.0000   1.0000
     0.1960   0.0282   0.0026   0.0000   0.0000   0.0000   0.0000   0.0000
     0.0000

          k = 0.0000 0.4619 0.8165 (  1588 PWs)   bands (ev):

   -70.3063 -70.3062 -39.1780 -39.1771 -39.0442 -39.0437 -39.0371 -39.0366
    -5.6373  -5.5209   2.7234   2.7540   3.7728   3.9856   4.0881   4.1463
     7.8000   7.9243   8.3306   8.6989   8.7440   8.8253   9.1217   9.3570
     9.6886

     occupation numbers 
     1.0000   1.0000   1.0000   1.0000   1.0000   1.0000   1.0000   1.0000
     1.0000   1.0000   1.0000   1.0000   1.0000   1.0000   1.0000   1.0000
     0.9424   0.6116   0.0000   0.0000   0.0000   0.0000   0.0000   0.0000
     0.0000

          k = 0.0000 0.4619-1.1431 (  1573 PWs)   bands (ev):

   -70.3061 -70.3061 -39.1779 -39.1768 -39.0452 -39.0447 -39.0375 -39.0367
    -5.5017  -5.3920   2.6439   2.7244   3.6452   3.6638   4.0562   4.1685
     7.4987   8.0240   8.2644   8.4078   8.6700   8.7315   9.0831   9.3437
     9.4492

     occupation numbers 
     1.0000   1.0000   1.0000   1.0000   1.0000   1.0000   1.0000   1.0000
     1.0000   1.0000   1.0000   1.0000   1.0000   1.0000   1.0000   1.0000
     1.0000   0.2260   0.0006   0.0000   0.0000   0.0000   0.0000   0.0000
     0.0000

          k = 0.0000 0.4619-0.6532 (  1585 PWs)   bands (ev):

   -70.3063 -70.3061 -39.1789 -39.1762 -39.0441 -39.0439 -39.0371 -39.0365
    -5.7627  -5.3880   2.9857   2.9979   3.2861   3.8186   4.0892   4.1830
     7.4705   8.1618   8.1745   8.6001   8.7746   8.9435   9.0528   9.4265
     9.6121

     occupation numbers 
     1.0000   1.0000   1.0000   1.0000   1.0000   1.0000   1.0000   1.0000
     1.0000   1.0000   1.0000   1.0000   1.0000   1.0000   1.0000   1.0000
     1.0000   0.0145   0.0103   0.0000   0.0000   0.0000   0.0000   0.0000
     0.0000

          k = 0.0000 0.9238-0.3266 (  1578 PWs)   bands (ev):

   -70.3063 -70.3060 -39.1783 -39.1766 -39.0436 -39.0431 -39.0379 -39.0378
    -5.6550  -5.3936   2.4724   2.4898   3.9536   4.1285   4.1923   4.2277
     7.4160   8.4103   8.4660   8.5297   8.6050   8.7951   9.0970   9.1162
     9.6621

     occupation numbers 
     1.0000   1.0000   1.0000   1.0000   1.0000   1.0000   1.0000   1.0000
     1.0000   1.0000   1.0000   1.0000   1.0000   1.0000   1.0000   1.0000
     1.0000   0.0000   0.0000   0.0000   0.0000   0.0000   0.0000   0.0000
     0.0000

          k = 0.0000 0.9238 0.1633 (  1588 PWs)   bands (ev):

   -70.3063 -70.3062 -39.1779 -39.1772 -39.0429 -39.0427 -39.0381 -39.0380
    -5.6367  -5.5209   2.7163   2.7493   3.7764   3.9934   4.0963   4.1504
     7.7938   7.9208   8.3373   8.6851   8.7402   8.8235   9.1257   9.3460
     9.6902

     occupation numbers 
     1.0000   1.0000   1.0000   1.0000   1.0000   1.0000   1.0000   1.0000
     1.0000   1.0000   1.0000   1.0000   1.0000   1.0000   1.0000   1.0000
     0.9495   0.6254   0.0000   0.0000   0.0000   0.0000   0.0000   0.0000
     0.0000

          k = 0.0000 0.9238 0.6532 (  1582 PWs)   bands (ev):

   -70.3062 -70.3061 -39.1779 -39.1771 -39.0436 -39.0432 -39.0379 -39.0379
    -5.5892  -5.4637   2.4617   2.5119   3.9856   4.0722   4.1773   4.2473
     7.4525   8.3355   8.4614   8.6299   8.7981   8.8840   8.9912   9.0413
     9.3866

     occupation numbers 
     1.0000   1.0000   1.0000   1.0000   1.0000   1.0000   1.0000   1.0000
     1.0000   1.0000   1.0000   1.0000   1.0000   1.0000   1.0000   1.0000
     1.0000   0.0000   0.0000   0.0000   0.0000   0.0000   0.0000   0.0000
     0.0000

          k = 0.0000 0.9238-1.3064 (  1588 PWs)   bands (ev):

   -70.3062 -70.3061 -39.1780 -39.1770 -39.0442 -39.0437 -39.0383 -39.0382
    -5.5130  -5.3784   2.5443   2.6496   3.6749   3.8374   4.1119   4.1324
     7.4508   8.0827   8.3987   8.4216   8.5438   8.6172   9.1874   9.2476
     9.4287

     occupation numbers 
     1.0000   1.0000   1.0000   1.0000   1.0000   1.0000   1.0000   1.0000
     1.0000   1.0000   1.0000   1.0000   1.0000   1.0000   1.0000   1.0000
     1.0000   0.0865   0.0000   0.0000   0.0000   0.0000   0.0000   0.0000
     0.0000

          k = 0.0000 0.9238-0.8165 (  1573 PWs)   bands (ev):

   -70.3061 -70.3061 -39.1778 -39.1770 -39.0439 -39.0438 -39.0383 -39.0380
    -5.5010  -5.3920   2.6387   2.7148   3.6581   3.6735   4.0533   4.1742
     7.4939   8.0158   8.2637   8.4034   8.6679   8.7373   9.0879   9.3407
     9.4499

     occupation numbers 
     1.0000   1.0000   1.0000   1.0000   1.0000   1.0000   1.0000   1.0000
     1.0000   1.0000   1.0000   1.0000   1.0000   1.0000   1.0000   1.0000
     1.0000   0.2522   0.0006   0.0000   0.0000   0.0000   0.0000   0.0000
     0.0000

          k = 0.3333-0.1925-0.1361 (  1605 PWs)   bands (ev):

   -70.3065 -70.3064 -39.1791 -39.1767 -39.0421 -39.0415 -39.0358 -39.0352
    -6.0892  -5.7590   2.6407   3.4834   4.1871   4.2079   4.2482   4.2638
     8.3920   8.3922   8.3949   8.3993   8.6578   9.6101   9.8998   9.9149
    10.4314

     occupation numbers 
     1.0000   1.0000   1.0000   1.0000   1.0000   1.0000   1.0000   1.0000
     1.0000   1.0000   1.0000   1.0000   1.0000   1.0000   1.0000   1.0000
     0.0000   0.0000   0.0000   0.0000   0.0000   0.0000   0.0000   0.0000
     0.0000

          k = 0.3333-0.1925 0.3538 (  1594 PWs)   bands (ev):

   -70.3065 -70.3062 -39.1792 -39.1761 -39.0434 -39.0426 -39.0359 -39.0357
    -5.9996  -5.5500   2.6599   3.4416   3.7249   4.0300   4.1400   4.2834
     8.0259   8.1009   8.2768   8.5785   8.7245   9.2157   9.8534   9.8772
     9.9853

     occupation numbers 
     1.0000   1.0000   1.0000   1.0000   1.0000   1.0000   1.0000   1.0000
     1.0000   1.0000   1.0000   1.0000   1.0000   1.0000   1.0000   1.0000
     0.2200   0.0603   0.0004   0.0000   0.0000   0.0000   0.0000   0.0000
     0.0000

          k = 0.3333-0.1925 0.8437 (  1583 PWs)   bands (ev):

   -70.3063 -70.3061 -39.1784 -39.1766 -39.0450 -39.0449 -39.0365 -39.0361
    -5.6560  -5.3992   2.7546   2.8413   3.3546   3.9032   4.1667   4.2154
     7.5217   8.0145   8.4777   8.5045   8.7171   8.7333   9.2174   9.4053
     9.5121

     occupation numbers 
     1.0000   1.0000   1.0000   1.0000   1.0000   1.0000   1.0000   1.0000
     1.0000   1.0000   1.0000   1.0000   1.0000   1.0000   1.0000   1.0000
     1.0000   0.2566   0.0000   0.0000   0.0000   0.0000   0.0000   0.0000
     0.0000

          k = 0.3333-0.1925-1.1159 (  1581 PWs)   bands (ev):

   -70.3062 -70.3061 -39.1776 -39.1774 -39.0454 -39.0445 -39.0366 -39.0359
    -5.5314  -5.5261   2.5667   2.6282   3.7532   4.0119   4.1556   4.2346
     7.5502   8.0901   8.4405   8.6533   8.8666   8.8674   9.1385   9.1997
     9.2831

     occupation numbers 
     1.0000   1.0000   1.0000   1.0000   1.0000   1.0000   1.0000   1.0000
     1.0000   1.0000   1.0000   1.0000   1.0000   1.0000   1.0000   1.0000
     1.0000   0.0750   0.0000   0.0000   0.0000   0.0000   0.0000   0.0000
     0.0000

          k = 0.3333-0.1925-0.6260 (  1602 PWs)   bands (ev):

   -70.3064 -70.3064 -39.1781 -39.1775 -39.0433 -39.0428 -39.0361 -39.0355
    -5.8181  -5.7473   2.8913   3.0030   3.9302   4.0695   4.1704   4.2545
     7.8986   8.1994   8.5380   8.6762   8.9288   8.9884   9.4568   9.4999
     9.8998

     occupation numbers 
     1.0000   1.0000   1.0000   1.0000   1.0000   1.0000   1.0000   1.0000
     1.0000   1.0000   1.0000   1.0000   1.0000   1.0000   1.0000   1.0000
     0.7092   0.0050   0.0000   0.0000   0.0000   0.0000   0.0000   0.0000
     0.0000

          k = 0.3333 0.2694-0.2994 (  1594 PWs)   bands (ev):

   -70.3065 -70.3062 -39.1793 -39.1761 -39.0425 -39.0422 -39.0368 -39.0362
    -5.9995  -5.5497   2.6614   3.4299   3.7176   4.0273   4.1572   4.2960
     8.0116   8.0965   8.2824   8.5794   8.7171   9.2101   9.8613   9.8883
     9.9864

     occupation numbers 
     1.0000   1.0000   1.0000   1.0000   1.0000   1.0000   1.0000   1.0000
     1.0000   1.0000   1.0000   1.0000   1.0000   1.0000   1.0000   1.0000
     0.2663   0.0661   0.0003   0.0000   0.0000   0.0000   0.0000   0.0000
     0.0000

          k = 0.3333 0.2694 0.1905 (  1598 PWs)   bands (ev):

   -70.3065 -70.3062 -39.1798 -39.1757 -39.0427 -39.0419 -39.0368 -39.0362
    -6.0474  -5.4925   2.5442   3.4758   3.7955   4.0473   4.1834   4.2623
     7.8071   8.3318   8.4350   8.4483   8.5413   9.4221   9.4678   9.6221
    10.3279

     occupation numbers 
     1.0000   1.0000   1.0000   1.0000   1.0000   1.0000   1.0000   1.0000
     1.0000   1.0000   1.0000   1.0000   1.0000   1.0000   1.0000   1.0000
     0.9335   0.0000   0.0000   0.0000   0.0000   0.0000   0.0000   0.0000
     0.0000

          k = 0.3333 0.2694 0.6804 (  1583 PWs)   bands (ev):

   -70.3064 -70.3060 -39.1788 -39.1762 -39.0440 -39.0439 -39.0371 -39.0366
    -5.7590  -5.3922   2.9608   2.9834   3.3207   3.8298   4.0941   4.1783
     7.4977   8.1522   8.1726   8.5855   8.7938   8.9306   9.0702   9.4201
     9.6359

     occupation numbers 
     1.0000   1.0000   1.0000   1.0000   1.0000   1.0000   1.0000   1.0000
     1.0000   1.0000   1.0000   1.0000   1.0000   1.0000   1.0000   1.0000
     1.0000   0.0185   0.0108   0.0000   0.0000   0.0000   0.0000   0.0000
     0.0000

          k = 0.3333 0.2694-1.2792 (  1576 PWs)   bands (ev):

   -70.3062 -70.3060 -39.1779 -39.1769 -39.0453 -39.0446 -39.0375 -39.0367
    -5.5085  -5.3844   2.5917   2.6908   3.6611   3.7433   4.0845   4.1524
     7.4830   8.0571   8.3309   8.4191   8.6304   8.6708   9.1223   9.3800
     9.3810

     occupation numbers 
     1.0000   1.0000   1.0000   1.0000   1.0000   1.0000   1.0000   1.0000
     1.0000   1.0000   1.0000   1.0000   1.0000   1.0000   1.0000   1.0000
     1.0000   0.1364   0.0000   0.0000   0.0000   0.0000   0.0000   0.0000
     0.0000

          k = 0.3333 0.2694-0.7893 (  1589 PWs)   bands (ev):

   -70.3063 -70.3061 -39.1783 -39.1769 -39.0442 -39.0437 -39.0371 -39.0366
    -5.6726  -5.4845   2.7465   2.7938   3.6841   4.0011   4.0828   4.1428
     7.7461   7.9661   8.2403   8.6885   8.7955   8.8477   9.0668   9.4104
     9.6832

     occupation numbers 
     1.0000   1.0000   1.0000   1.0000   1.0000   1.0000   1.0000   1.0000
     1.0000   1.0000   1.0000   1.0000   1.0000   1.0000   1.0000   1.0000
     0.9836   0.4401   0.0013   0.0000   0.0000   0.0000   0.0000   0.0000
     0.0000

          k = 0.3333 0.7313-0.4627 (  1583 PWs)   bands (ev):

   -70.3063 -70.3061 -39.1783 -39.1767 -39.0436 -39.0432 -39.0381 -39.0378
    -5.6554  -5.3988   2.7457   2.8341   3.3556   3.9061   4.1847   4.2304
     7.5077   8.0038   8.4706   8.5095   8.7177   8.7266   9.2176   9.4067
     9.5104

     occupation numbers 
     1.0000   1.0000   1.0000   1.0000   1.0000   1.0000   1.0000   1.0000
     1.0000   1.0000   1.0000   1.0000   1.0000   1.0000   1.0000   1.0000
     1.0000   0.2938   0.0000   0.0000   0.0000   0.0000   0.0000   0.0000
     0.0000

          k = 0.3333 0.7313 0.0272 (  1583 PWs)   bands (ev):

   -70.3064 -70.3060 -39.1787 -39.1763 -39.0431 -39.0425 -39.0381 -39.0380
    -5.7585  -5.3921   2.9573   2.9738   3.3163   3.8449   4.1040   4.1830
     7.4891   8.1479   8.1828   8.5833   8.7934   8.9196   9.0647   9.4186
     9.6393

     occupation numbers 
     1.0000   1.0000   1.0000   1.0000   1.0000   1.0000   1.0000   1.0000
     1.0000   1.0000   1.0000   1.0000   1.0000   1.0000   1.0000   1.0000
     1.0000   0.0207   0.0081   0.0000   0.0000   0.0000   0.0000   0.0000
     0.0000

          k = 0.3333 0.7313 0.5171 (  1587 PWs)   bands (ev):

   -70.3063 -70.3061 -39.1782 -39.1770 -39.0434 -39.0434 -39.0380 -39.0378
    -5.6147  -5.4426   2.7690   2.8213   3.3670   3.8766   4.1731   4.2451
     7.6700   7.7864   8.4644   8.5768   8.7619   8.7658   9.2241   9.3400
     9.5663

     occupation numbers 
     1.0000   1.0000   1.0000   1.0000   1.0000   1.0000   1.0000   1.0000
     1.0000   1.0000   1.0000   1.0000   1.0000   1.0000   1.0000   1.0000
     0.9983   0.9570   0.0000   0.0000   0.0000   0.0000   0.0000   0.0000
     0.0000

          k = 0.3333 0.7313-1.4425 (  1573 PWs)   bands (ev):

   -70.3061 -70.3060 -39.1775 -39.1773 -39.0442 -39.0434 -39.0384 -39.0380
    -5.4813  -5.4142   2.7807   2.8159   3.4961   3.5425   4.0505   4.1723
     7.5782   7.9021   8.2100   8.2917   8.7347   8.8233   9.0707   9.2412
     9.5833

     occupation numbers 
     1.0000   1.0000   1.0000   1.0000   1.0000   1.0000   1.0000   1.0000
     1.0000   1.0000   1.0000   1.0000   1.0000   1.0000   1.0000   1.0000
     0.9999   0.6965   0.0036   0.0002   0.0000   0.0000   0.0000   0.0000
     0.0000

          k = 0.3333 0.7313-0.9526 (  1579 PWs)   bands (ev):

   -70.3061 -70.3061 -39.1775 -39.1774 -39.0442 -39.0436 -39.0384 -39.0380
    -5.4553  -5.4416   2.8988   2.9035   3.3905   3.4020   4.1001   4.1283
     7.6966   7.7668   8.1971   8.2016   8.7928   8.8080   9.1090   9.1533
     9.6571

     occupation numbers 
     1.0000   1.0000   1.0000   1.0000   1.0000   1.0000   1.0000   1.0000
     1.0000   1.0000   1.0000   1.0000   1.0000   1.0000   1.0000   1.0000
     0.9960   0.9726   0.0054   0.0047   0.0000   0.0000   0.0000   0.0000
     0.0000

          k = 0.3333-1.1162 0.1905 (  1581 PWs)   bands (ev):

   -70.3062 -70.3061 -39.1775 -39.1775 -39.0435 -39.0433 -39.0379 -39.0378
    -5.5305  -5.5260   2.5624   2.6193   3.7560   4.0093   4.1713   4.2520
     7.5405   8.0696   8.4424   8.6482   8.8632   8.8703   9.1399   9.2092
     9.2699

     occupation numbers 
     1.0000   1.0000   1.0000   1.0000   1.0000   1.0000   1.0000   1.0000
     1.0000   1.0000   1.0000   1.0000   1.0000   1.0000   1.0000   1.0000
     1.0000   0.1101   0.0000   0.0000   0.0000   0.0000   0.0000   0.0000
     0.0000

          k = 0.3333-1.1162 0.6804 (  1576 PWs)   bands (ev):

   -70.3062 -70.3060 -39.1777 -39.1771 -39.0442 -39.0435 -39.0383 -39.0381
    -5.5076  -5.3846   2.5875   2.6820   3.6675   3.7560   4.0837   4.1576
     7.4779   8.0477   8.3431   8.4123   8.6255   8.6748   9.1197   9.3781
     9.3883

     occupation numbers 
     1.0000   1.0000   1.0000   1.0000   1.0000   1.0000   1.0000   1.0000
     1.0000   1.0000   1.0000   1.0000   1.0000   1.0000   1.0000   1.0000
     1.0000   0.1590   0.0000   0.0000   0.0000   0.0000   0.0000   0.0000
     0.0000

          k = 0.3333-1.1162 1.1703 (  1573 PWs)   bands (ev):

   -70.3061 -70.3060 -39.1776 -39.1772 -39.0440 -39.0437 -39.0383 -39.0380
    -5.4816  -5.4139   2.7802   2.8134   3.4923   3.5545   4.0455   4.1719
     7.5788   7.9036   8.1963   8.2993   8.7349   8.8233   9.0771   9.2413
     9.5777

     occupation numbers 
     1.0000   1.0000   1.0000   1.0000   1.0000   1.0000   1.0000   1.0000
     1.0000   1.0000   1.0000   1.0000   1.0000   1.0000   1.0000   1.0000
     0.9999   0.6910   0.0055   0.0002   0.0000   0.0000   0.0000   0.0000
     0.0000

          k = 0.3333-1.1162-0.7893 (  1577 PWs)   bands (ev):

   -70.3062 -70.3060 -39.1784 -39.1765 -39.0437 -39.0431 -39.0380 -39.0377
    -5.6733  -5.3756   2.5702   2.5835   3.7342   4.0773   4.2067   4.2125
     7.4002   8.3127   8.3682   8.6119   8.6585   8.6736   9.1678   9.2077
     9.7416

     occupation numbers 
     1.0000   1.0000   1.0000   1.0000   1.0000   1.0000   1.0000   1.0000
     1.0000   1.0000   1.0000   1.0000   1.0000   1.0000   1.0000   1.0000
     1.0000   0.0001   0.0000   0.0000   0.0000   0.0000   0.0000   0.0000
     0.0000

          k = 0.3333-1.1162-0.2994 (  1580 PWs)   bands (ev):

   -70.3063 -70.3061 -39.1783 -39.1767 -39.0430 -39.0425 -39.0380 -39.0380
    -5.7024  -5.4520   2.7799   2.8384   3.5903   3.9847   4.1146   4.1378
     7.6690   8.0304   8.1983   8.6634   8.8524   8.8564   9.0475   9.4430
     9.6704

     occupation numbers 
     1.0000   1.0000   1.0000   1.0000   1.0000   1.0000   1.0000   1.0000
     1.0000   1.0000   1.0000   1.0000   1.0000   1.0000   1.0000   1.0000
     0.9983   0.2065   0.0052   0.0000   0.0000   0.0000   0.0000   0.0000
     0.0000

          k = 0.3333-0.6543 0.0272 (  1602 PWs)   bands (ev):

   -70.3064 -70.3063 -39.1779 -39.1776 -39.0426 -39.0421 -39.0365 -39.0365
    -5.8176  -5.7474   2.8858   3.0022   3.9247   4.0601   4.1844   4.2707
     7.8929   8.2006   8.5301   8.6795   8.9395   8.9693   9.4524   9.5063
     9.8936

     occupation numbers 
     1.0000   1.0000   1.0000   1.0000   1.0000   1.0000   1.0000   1.0000
     1.0000   1.0000   1.0000   1.0000   1.0000   1.0000   1.0000   1.0000
     0.7291   0.0048   0.0000   0.0000   0.0000   0.0000   0.0000   0.0000
     0.0000

          k = 0.3333-0.6543 0.5171 (  1589 PWs)   bands (ev):

   -70.3063 -70.3061 -39.1781 -39.1771 -39.0443 -39.0438 -39.0369 -39.0368
    -5.6721  -5.4850   2.7415   2.7956   3.6896   4.0064   4.0831   4.1344
     7.7479   7.9673   8.2517   8.6844   8.7869   8.8492   9.0758   9.3927
     9.6819

     occupation numbers 
     1.0000   1.0000   1.0000   1.0000   1.0000   1.0000   1.0000   1.0000
     1.0000   1.0000   1.0000   1.0000   1.0000   1.0000   1.0000   1.0000
     0.9829   0.4350   0.0009   0.0000   0.0000   0.0000   0.0000   0.0000
     0.0000

          k = 0.3333-0.6543 1.0070 (  1579 PWs)   bands (ev):

   -70.3061 -70.3061 -39.1775 -39.1774 -39.0450 -39.0449 -39.0372 -39.0370
    -5.4559  -5.4417   2.9081   2.9104   3.3791   3.4011   4.0917   4.1211
     7.7064   7.7779   8.1880   8.2055   8.7919   8.8071   9.1124   9.1551
     9.6555

     occupation numbers 
     1.0000   1.0000   1.0000   1.0000   1.0000   1.0000   1.0000   1.0000
     1.0000   1.0000   1.0000   1.0000   1.0000   1.0000   1.0000   1.0000
     0.9946   0.9645   0.0070   0.0042   0.0000   0.0000   0.0000   0.0000
     0.0000

          k = 0.3333-0.6543-0.9526 (  1580 PWs)   bands (ev):

   -70.3063 -70.3061 -39.1783 -39.1767 -39.0442 -39.0437 -39.0368 -39.0368
    -5.7026  -5.4524   2.7813   2.8461   3.5951   3.9750   4.1115   4.1245
     7.6799   8.0353   8.1962   8.6643   8.8547   8.8615   9.0543   9.4367
     9.6672

     occupation numbers 
     1.0000   1.0000   1.0000   1.0000   1.0000   1.0000   1.0000   1.0000
     1.0000   1.0000   1.0000   1.0000   1.0000   1.0000   1.0000   1.0000
     0.9976   0.1920   0.0055   0.0000   0.0000   0.0000   0.0000   0.0000
     0.0000

          k = 0.3333-0.6543-0.4627 (  1599 PWs)   bands (ev):

   -70.3064 -70.3063 -39.1783 -39.1771 -39.0427 -39.0421 -39.0366 -39.0364
    -5.8735  -5.6889   2.7879   3.0846   3.9751   4.0296   4.1962   4.2578
     7.8857   8.2354   8.5353   8.6986   8.7307   9.1726   9.4373   9.5518
     9.8126

     occupation numbers 
     1.0000   1.0000   1.0000   1.0000   1.0000   1.0000   1.0000   1.0000
     1.0000   1.0000   1.0000   1.0000   1.0000   1.0000   1.0000   1.0000
     0.7534   0.0016   0.0000   0.0000   0.0000   0.0000   0.0000   0.0000
     0.0000

     the Fermi energy is     7.9516 ev

!    total energy              =    -705.47513114 Ry
     total all-electron energy =     -6231.191938 Ry
     estimated scf accuracy    <          7.7E-11 Ry
     smearing contrib. (-TS)   =      -0.00191265 Ry
     internal energy E=F+TS    =    -705.47321849 Ry

     The total energy is F=E-TS. E is the sum of the following terms:
     one-electron contribution =    -304.53230975 Ry
     hartree contribution      =     169.01251770 Ry
     xc contribution           =     -65.96288814 Ry
     ewald contribution        =    -256.50042837 Ry
     one-center paw contrib.   =    -247.49010995 Ry
      -> PAW hartree energy AE =     175.43089197 Ry
      -> PAW hartree energy PS =    -176.38546643 Ry
      -> PAW xc energy AE      =    -104.43819055 Ry
      -> PAW xc energy PS      =      27.77804002 Ry
      -> total E_H with PAW    =     168.05794324 Ry
      -> total E_XC with PAW   =    -142.62303867 Ry

     total magnetization       =     7.81 Bohr mag/cell
     absolute magnetization    =     7.90 Bohr mag/cell

     convergence has been achieved in  19 iterations

     Forces acting on atoms (cartesian axes, Ry/au):

     atom    1 type  1   force =    -0.00075343    0.00043499    0.00006873
     atom    2 type  2   force =    -0.00076904    0.00044400    0.00007464
     atom    3 type  3   force =     0.00076124   -0.00043950   -0.00007182
     atom    4 type  3   force =     0.00076123   -0.00043950   -0.00007156
     The non-local contrib.  to forces
     atom    1 type  1   force =    -0.01662784    0.00960009    0.00558257
     atom    2 type  2   force =    -0.01663501    0.00960422    0.00558522
     atom    3 type  3   force =     0.00080995   -0.00046762    0.00069541
     atom    4 type  3   force =     0.00081084   -0.00046814    0.00069502
     The ionic contribution  to forces
     atom    1 type  1   force =     0.13122545   -0.07576269   -0.07881429
     atom    2 type  2   force =     0.13118077   -0.07574040   -0.07880025
     atom    3 type  3   force =    -0.13121597    0.07576062    0.07881475
     atom    4 type  3   force =    -0.13119024    0.07574247    0.07879978
     The local contribution  to forces
     atom    1 type  1   force =    -0.11761025    0.06794830    0.07406213
     atom    2 type  2   force =    -0.11758109    0.06784072    0.07403833
     atom    3 type  3   force =     0.13093511   -0.07559620   -0.07941607
     atom    4 type  3   force =     0.13089338   -0.07557343   -0.07939486
     The core correction contribution to forces
     atom    1 type  1   force =     0.00215014   -0.00124093   -0.00068880
     atom    2 type  2   force =     0.00214949   -0.00124146   -0.00068872
     atom    3 type  3   force =     0.00012300   -0.00007102   -0.00010495
     atom    4 type  3   force =     0.00012292   -0.00007095   -0.00010490
     The Hubbard contrib.    to forces
     atom    1 type  1   force =     0.00000000    0.00000000    0.00000000
     atom    2 type  2   force =     0.00000000    0.00000000    0.00000000
     atom    3 type  3   force =     0.00000000    0.00000000    0.00000000
     atom    4 type  3   force =     0.00000000    0.00000000    0.00000000
     The SCF correction term to forces
     atom    1 type  1   force =     0.00001289   -0.00000744   -0.00000872
     atom    2 type  2   force =    -0.00002058    0.00001188    0.00000422
     atom    3 type  3   force =    -0.00000631    0.00000364    0.00000321
     atom    4 type  3   force =     0.00000689   -0.00000398   -0.00000244

     Total force =     0.001764     Total SCF correction =     0.000032


     Computing stress (Cartesian axis) and pressure

          total   stress  (Ry/bohr**3)                   (kbar)     P=     -421.59
  -0.00289573   0.00003733   0.00004299         -425.98        5.49        6.32
   0.00003733  -0.00285263  -0.00002482            5.49     -419.64       -3.65
   0.00004299  -0.00002482  -0.00284939            6.32       -3.65     -419.16

     kinetic stress (kbar)  15428.70     43.05     32.66
                               43.05  15478.41    -18.86
                               32.66    -18.86  15493.03

     local   stress (kbar)  -2872.11    443.19    313.41
                              443.19  -2360.36   -180.94
                              313.41   -180.94  -2004.81

     nonloc. stress (kbar)   -920.49     -3.69     -2.54
                               -3.69   -924.74      1.47
                               -2.54      1.47   -928.82

     hartree stress (kbar)  14656.01   -148.88   -107.16
                             -148.88  14484.10     61.87
                             -107.16     61.87  14362.88

     exc-cor stress (kbar)  -2364.98     -0.59     -0.43
                               -0.59  -2365.65      0.25
                               -0.43      0.25  -2366.17

     corecor stress (kbar)  -2679.31     -0.05     -0.01
                               -0.05  -2679.36      0.01
                               -0.01      0.01  -2679.16

     ewald   stress (kbar) -21673.80   -327.55   -229.60
                             -327.55 -22052.03    132.56
                             -229.60    132.56 -22296.11

     hubbard stress (kbar)      0.00      0.00      0.00
                                0.00      0.00      0.00
                                0.00      0.00      0.00

     DFT-D   stress (kbar)      0.00      0.00      0.00
                                0.00      0.00      0.00
                                0.00      0.00      0.00

     XDM     stress (kbar)      0.00      0.00      0.00
                                0.00      0.00      0.00
                                0.00      0.00      0.00

     dft-nl  stress (kbar)      0.00      0.00      0.00
                                0.00      0.00      0.00
                                0.00      0.00      0.00

     TS-vdW  stress (kbar)      0.00      0.00      0.00
                                0.00      0.00      0.00
                                0.00      0.00      0.00

     MDB     stress (kbar)      0.00      0.00      0.00
                                0.00      0.00      0.00
                                0.00      0.00      0.00

     3D-RISM stress (kbar)      0.00      0.00      0.00
                                0.00      0.00      0.00
                                0.00      0.00      0.00


     BFGS Geometry Optimization
     Energy error            =      0.0E+00 Ry
     Gradient error          =      7.7E-04 Ry/Bohr
     Cell gradient error     =      4.3E+02 kbar

     number of scf cycles    =   1
     number of bfgs steps    =   0

     enthalpy           new  =    -705.4751311446 Ry

     new trust radius        =       0.3461991818 bohr
WARNING! With ibrav=0, cell_dofree='ibrav' has no effect. 
     new conv_thr            =            1.0E-10 Ry

     new unit-cell volume =    457.26102 a.u.^3 (    67.75909 Ang^3 )
     density =      4.26428 g/cm^3

CELL_PARAMETERS (angstrom)
[...]
     1.0000   1.0000   1.0000   1.0000   0.8989   0.0000   0.0000   0.0000
     0.0000

          k = 0.3713 0.3070-1.4424 (  1122 PWs)   bands (ev):

   -67.4483 -67.4480 -36.2511 -36.2500 -36.2386 -36.2375 -36.2368 -36.2331
    -2.0334  -1.7998   5.5091   5.5549   6.9003   7.1213   7.4680   7.6785
    10.1212  10.9398  11.1786  11.2561  11.6516  11.7040  12.5644  12.9762
    13.2201

     occupation numbers 
     1.0000   1.0000   1.0000   1.0000   1.0000   1.0000   1.0000   1.0000
     1.0000   1.0000   1.0000   1.0000   1.0000   1.0000   1.0000   1.0000
     1.0000   1.0000   1.0000   1.0000   0.9940   0.9755   0.0000   0.0000
     0.0000

          k = 0.3724 0.3064-0.8898 (  1117 PWs)   bands (ev):

   -67.4487 -67.4483 -36.2514 -36.2470 -36.2386 -36.2351 -36.2310 -36.2303
    -2.3796  -2.0188   5.6723   5.7258   6.9907   7.2169   7.3782   7.5977
    10.4758  10.6299  11.1390  11.5059  11.8879  12.2903  12.6564  13.4543
    13.6445

     occupation numbers 
     1.0000   1.0000   1.0000   1.0000   1.0000   1.0000   1.0000   1.0000
     1.0000   1.0000   1.0000   1.0000   1.0000   1.0000   1.0000   1.0000
     1.0000   1.0000   1.0000   1.0000   0.5229   0.0000   0.0000   0.0000
     0.0000

          k = 0.3764 0.8254-0.5220 (  1115 PWs)   bands (ev):

   -67.4486 -67.4480 -36.2519 -36.2452 -36.2436 -36.2403 -36.2299 -36.2277
    -2.3419  -1.8328   5.6431   5.7126   6.7622   7.1753   7.4347   7.7004
    10.2095  10.7007  11.3338  11.5245  11.6116  12.1603  12.7643  13.0890
    13.5861

     occupation numbers 
     1.0000   1.0000   1.0000   1.0000   1.0000   1.0000   1.0000   1.0000
     1.0000   1.0000   1.0000   1.0000   1.0000   1.0000   1.0000   1.0000
     1.0000   1.0000   1.0000   0.9999   0.9983   0.0028   0.0000   0.0000
     0.0000

          k = 0.3774 0.8248 0.0305 (  1114 PWs)   bands (ev):

   -67.4489 -67.4480 -36.2539 -36.2419 -36.2410 -36.2384 -36.2307 -36.2273
    -2.5497  -1.8271   5.9428   5.9511   6.5706   7.0080   7.4071   7.6551
    10.1791  10.7717  10.9654  11.4064  11.7938  12.5506  12.6622  13.3723
    13.4072

     occupation numbers 
     1.0000   1.0000   1.0000   1.0000   1.0000   1.0000   1.0000   1.0000
     1.0000   1.0000   1.0000   1.0000   1.0000   1.0000   1.0000   1.0000
     1.0000   1.0000   1.0000   1.0000   0.8497   0.0000   0.0000   0.0000
     0.0000

          k = 0.3785 0.8242 0.5831 (  1115 PWs)   bands (ev):

   -67.4485 -67.4481 -36.2501 -36.2457 -36.2442 -36.2408 -36.2290 -36.2288
    -2.2633  -1.9208   5.6234   5.7819   6.6386   7.2311   7.5113   7.6228
    10.4510  10.4570  11.2403  11.6109  11.7173  12.2570  12.8549  13.2303
    13.4378

     occupation numbers 
     1.0000   1.0000   1.0000   1.0000   1.0000   1.0000   1.0000   1.0000
     1.0000   1.0000   1.0000   1.0000   1.0000   1.0000   1.0000   1.0000
     1.0000   1.0000   1.0000   0.9983   0.9664   0.0001   0.0000   0.0000
     0.0000

          k = 0.3743 0.8266-1.6271 (  1122 PWs)   bands (ev):

   -67.4483 -67.4480 -36.2503 -36.2482 -36.2421 -36.2414 -36.2336 -36.2316
    -1.9901  -1.8516   5.7110   5.7694   6.6534   6.8585   7.5542   7.6112
    10.2962  10.7386  11.0449  11.0600  11.8212  11.8580  12.5171  12.8460
    13.3346

     occupation numbers 
     1.0000   1.0000   1.0000   1.0000   1.0000   1.0000   1.0000   1.0000
     1.0000   1.0000   1.0000   1.0000   1.0000   1.0000   1.0000   1.0000
     1.0000   1.0000   1.0000   1.0000   0.7734   0.6433   0.0000   0.0000
     0.0000

          k = 0.3754 0.8260-1.0746 (  1117 PWs)   bands (ev):

   -67.4482 -67.4481 -36.2484 -36.2475 -36.2432 -36.2428 -36.2327 -36.2323
    -1.9389  -1.9069   5.8499   5.8706   6.5910   6.6506   7.5842   7.5917
    10.4704  10.5627  11.0097  11.0141  11.8723  11.9124  12.5955  12.6541
    13.5308

     occupation numbers 
     1.0000   1.0000   1.0000   1.0000   1.0000   1.0000   1.0000   1.0000
     1.0000   1.0000   1.0000   1.0000   1.0000   1.0000   1.0000   1.0000
     1.0000   1.0000   1.0000   1.0000   0.5868   0.4215   0.0000   0.0000
     0.0000

          k = 0.3644-1.2531 0.2169 (  1125 PWs)   bands (ev):

   -67.4484 -67.4484 -36.2506 -36.2506 -36.2409 -36.2391 -36.2304 -36.2274
    -2.0939  -2.0891   5.4072   5.5178   6.9669   7.4852   7.4919   7.6439
    10.1516  11.0006  11.1872  11.6945  11.7222  12.3701  12.7077  12.9631
    13.1475

     occupation numbers 
     1.0000   1.0000   1.0000   1.0000   1.0000   1.0000   1.0000   1.0000
     1.0000   1.0000   1.0000   1.0000   1.0000   1.0000   1.0000   1.0000
     1.0000   1.0000   1.0000   0.9806   0.9624   0.0000   0.0000   0.0000
     0.0000

          k = 0.3654-1.2537 0.7695 (  1121 PWs)   bands (ev):

   -67.4483 -67.4480 -36.2526 -36.2501 -36.2394 -36.2390 -36.2349 -36.2312
    -2.0391  -1.7915   5.5215   5.5486   6.8935   7.1164   7.5018   7.6451
    10.1330  10.9390  11.1700  11.2671  11.6778  11.6863  12.5734  12.9661
    13.2065

     occupation numbers 
     1.0000   1.0000   1.0000   1.0000   1.0000   1.0000   1.0000   1.0000
     1.0000   1.0000   1.0000   1.0000   1.0000   1.0000   1.0000   1.0000
     1.0000   1.0000   1.0000   1.0000   0.9875   0.9843   0.0000   0.0000
     0.0000

          k = 0.3664-1.2543 1.3220 (  1119 PWs)   bands (ev):

   -67.4482 -67.4481 -36.2503 -36.2484 -36.2417 -36.2409 -36.2340 -36.2316
    -1.9867  -1.8552   5.7131   5.7742   6.6669   6.8535   7.5319   7.6268
    10.2884  10.7421  11.0313  11.0676  11.8273  11.8649  12.5072  12.8783
    13.3532

     occupation numbers 
     1.0000   1.0000   1.0000   1.0000   1.0000   1.0000   1.0000   1.0000
     1.0000   1.0000   1.0000   1.0000   1.0000   1.0000   1.0000   1.0000
     1.0000   1.0000   1.0000   1.0000   0.7539   0.6163   0.0000   0.0000
     0.0000

          k = 0.3623-1.2519-0.8881 (  1121 PWs)   bands (ev):

   -67.4487 -67.4480 -36.2547 -36.2481 -36.2411 -36.2374 -36.2311 -36.2264
    -2.3746  -1.7844   5.3853   5.4822   7.2726   7.2908   7.3660   7.7769
    10.0795  11.0330  11.3926  11.4508  11.5178  12.0495  12.6137  12.6793
    14.0136

     occupation numbers 
     1.0000   1.0000   1.0000   1.0000   1.0000   1.0000   1.0000   1.0000
     1.0000   1.0000   1.0000   1.0000   1.0000   1.0000   1.0000   1.0000
     1.0000   1.0000   1.0000   1.0000   1.0000   0.0523   0.0000   0.0000
     0.0000

          k = 0.3633-1.2525-0.3356 (  1114 PWs)   bands (ev):

   -67.4487 -67.4481 -36.2528 -36.2458 -36.2399 -36.2368 -36.2300 -36.2280
    -2.4424  -1.9479   5.7345   5.7824   6.8764   7.1650   7.3993   7.6101
    10.4248  10.6758  11.0345  11.4819  11.8958  12.4039  12.5819  13.4762
    13.5584

     occupation numbers 
     1.0000   1.0000   1.0000   1.0000   1.0000   1.0000   1.0000   1.0000
     1.0000   1.0000   1.0000   1.0000   1.0000   1.0000   1.0000   1.0000
     1.0000   1.0000   1.0000   1.0000   0.4902   0.0000   0.0000   0.0000
     0.0000

          k = 0.3674-0.7335 0.0322 (  1124 PWs)   bands (ev):

   -67.4492 -67.4490 -36.2498 -36.2469 -36.2327 -36.2310 -36.2271 -36.2244
    -2.6898  -2.5534   5.8328   6.0313   7.0824   7.2843   7.4102   7.4484
    10.4933  10.7887  11.2775  11.4651  12.7270  12.8090  13.5594  13.5698
    14.2852

     occupation numbers 
     1.0000   1.0000   1.0000   1.0000   1.0000   1.0000   1.0000   1.0000
     1.0000   1.0000   1.0000   1.0000   1.0000   1.0000   1.0000   1.0000
     1.0000   1.0000   1.0000   1.0000   0.0000   0.0000   0.0000   0.0000
     0.0000

          k = 0.3684-0.7341 0.5848 (  1117 PWs)   bands (ev):

   -67.4487 -67.4482 -36.2523 -36.2461 -36.2368 -36.2362 -36.2321 -36.2297
    -2.3864  -2.0113   5.6754   5.7210   6.9677   7.2177   7.4093   7.5885
    10.4887  10.6200  11.1720  11.5004  11.8841  12.2707  12.6525  13.4568
    13.6480

     occupation numbers 
     1.0000   1.0000   1.0000   1.0000   1.0000   1.0000   1.0000   1.0000
     1.0000   1.0000   1.0000   1.0000   1.0000   1.0000   1.0000   1.0000
     1.0000   1.0000   1.0000   1.0000   0.5384   0.0000   0.0000   0.0000
     0.0000

          k = 0.3694-0.7347 1.1373 (  1115 PWs)   bands (ev):

   -67.4481 -67.4481 -36.2477 -36.2472 -36.2416 -36.2415 -36.2347 -36.2340
    -1.9372  -1.9109   5.8431   5.8719   6.6030   6.6582   7.5763   7.5923
    10.4629  10.5721  10.9962  11.0235  11.8900  11.9106  12.5748  12.6684
    13.5385

     occupation numbers 
     1.0000   1.0000   1.0000   1.0000   1.0000   1.0000   1.0000   1.0000
     1.0000   1.0000   1.0000   1.0000   1.0000   1.0000   1.0000   1.0000
     1.0000   1.0000   1.0000   1.0000   0.5139   0.4289   0.0000   0.0000
     0.0000

          k = 0.3653-0.7323-1.0729 (  1119 PWs)   bands (ev):

   -67.4488 -67.4482 -36.2529 -36.2448 -36.2375 -36.2362 -36.2324 -36.2295
    -2.4455  -1.9472   5.7292   5.7812   6.8625   7.1737   7.3990   7.6177
    10.4247  10.6590  11.0405  11.4751  11.8658  12.3940  12.5647  13.4944
    13.5531

     occupation numbers 
     1.0000   1.0000   1.0000   1.0000   1.0000   1.0000   1.0000   1.0000
     1.0000   1.0000   1.0000   1.0000   1.0000   1.0000   1.0000   1.0000
     1.0000   1.0000   1.0000   1.0000   0.6130   0.0000   0.0000   0.0000
     0.0000

          k = 0.3663-0.7329-0.5203 (  1125 PWs)   bands (ev):

   -67.4494 -67.4489 -36.2519 -36.2449 -36.2323 -36.2314 -36.2274 -36.2240
    -2.7960  -2.4396   5.7359   6.1056   7.1269   7.2642   7.3708   7.4850
    10.5206  10.8019  11.2373  11.4799  12.3484  13.0848  13.4398  13.8162
    14.1376

     occupation numbers 
     1.0000   1.0000   1.0000   1.0000   1.0000   1.0000   1.0000   1.0000
     1.0000   1.0000   1.0000   1.0000   1.0000   1.0000   1.0000   1.0000
     1.0000   1.0000   1.0000   1.0000   0.0000   0.0000   0.0000   0.0000
     0.0000

     the Fermi energy is    11.8934 ev

!    total energy              =    -705.46380978 Ry
     total all-electron energy =     -6231.180617 Ry
     estimated scf accuracy    <          5.5E-13 Ry
     smearing contrib. (-TS)   =      -0.00287447 Ry
     internal energy E=F+TS    =    -705.46093531 Ry

     The total energy is F=E-TS. E is the sum of the following terms:
     one-electron contribution =    -254.85039957 Ry
     hartree contribution      =     150.98334791 Ry
     xc contribution           =     -66.10870809 Ry
     ewald contribution        =    -288.04247622 Ry
     one-center paw contrib.   =    -247.44269933 Ry
      -> PAW hartree energy AE =     184.45294020 Ry
      -> PAW hartree energy PS =    -185.36489782 Ry
      -> PAW xc energy AE      =    -104.70103689 Ry
      -> PAW xc energy PS      =      28.02407622 Ry
      -> total E_H with PAW    =     150.07139029 Ry
      -> total E_XC with PAW   =    -142.78566876 Ry

     total magnetization       =     0.11 Bohr mag/cell
     absolute magnetization    =     0.12 Bohr mag/cell

     convergence has been achieved in  33 iterations

     Forces acting on atoms (cartesian axes, Ry/au):

     atom    1 type  1   force =    -0.00054141    0.00031258    0.00047829
     atom    2 type  2   force =    -0.00054380    0.00031397    0.00047927
     atom    3 type  3   force =     0.00054491   -0.00031460   -0.00047972
     atom    4 type  3   force =     0.00054031   -0.00031195   -0.00047784
     The non-local contrib.  to forces
     atom    1 type  1   force =    -0.00562682    0.00324864    0.00478578
     atom    2 type  2   force =    -0.00561410    0.00324130    0.00478044
     atom    3 type  3   force =    -0.00592843    0.00342278    0.00311512
     atom    4 type  3   force =    -0.00593428    0.00342615    0.00311738
     The ionic contribution  to forces
     atom    1 type  1   force =    -0.11526387    0.06654749    0.07174941
     atom    2 type  2   force =    -0.11563545    0.06675769    0.07189826
     atom    3 type  3   force =     0.11540563   -0.06662511   -0.07180607
     atom    4 type  3   force =     0.11549369   -0.06668006   -0.07184160
     The local contribution  to forces
     atom    1 type  1   force =     0.12082022   -0.06971526   -0.07633853
     atom    2 type  2   force =     0.12114174   -0.06997939   -0.07648148
     atom    3 type  3   force =    -0.10893047    0.06288934    0.06830551
     atom    4 type  3   force =    -0.10902045    0.06294061    0.06834116
     The core correction contribution to forces
     atom    1 type  1   force =    -0.00030281    0.00027417    0.00032325
     atom    2 type  2   force =    -0.00030423    0.00027424    0.00032384
     atom    3 type  3   force =     0.00010773   -0.00006143   -0.00005284
     atom    4 type  3   force =     0.00010786   -0.00006149   -0.00005288
     The Hubbard contrib.    to forces
     atom    1 type  1   force =     0.00000000    0.00000000    0.00000000
     atom    2 type  2   force =     0.00000000    0.00000000    0.00000000
     atom    3 type  3   force =     0.00000000    0.00000000    0.00000000
     atom    4 type  3   force =     0.00000000    0.00000000    0.00000000
     The SCF correction term to forces
     atom    1 type  1   force =    -0.00000011    0.00000007    0.00000005
     atom    2 type  2   force =     0.00000006   -0.00000003   -0.00000011
     atom    3 type  3   force =    -0.00000048    0.00000028    0.00000024
     atom    4 type  3   force =     0.00000049   -0.00000028   -0.00000022

     Total force =     0.001577     Total SCF correction =     0.000001


     Computing stress (Cartesian axis) and pressure

          total   stress  (Ry/bohr**3)                   (kbar)     P=     -500.26
  -0.00337726  -0.00002611  -0.00000530         -496.81       -3.84       -0.78
  -0.00002611  -0.00340741   0.00000306           -3.84     -501.25        0.45
  -0.00000530   0.00000306  -0.00341746           -0.78        0.45     -502.73

     kinetic stress (kbar)  22476.75    -21.36     -1.45
                              -21.36  22452.08      0.84
                               -1.45      0.84  22443.97

     local   stress (kbar)   2239.60    214.99     14.57
                              214.99   2487.85     -8.41
                               14.57     -8.41   2559.72

     nonloc. stress (kbar)  -1572.03     20.30      4.32
                               20.30  -1548.59     -2.49
                                4.32     -2.49  -1538.38

     hartree stress (kbar)  18367.82    -35.88     18.87
                              -35.88  18326.39    -10.90
                               18.87    -10.90  18325.94

     exc-cor stress (kbar)  -3353.05     -1.03     -0.36
                               -1.03  -3354.21      0.20
                               -0.36      0.20  -3354.71

     corecor stress (kbar)  -3831.31     -0.01     -0.45
                               -0.01  -3831.01      0.31
                               -0.45      0.31  -3831.46

     ewald   stress (kbar) -34824.71   -180.93    -36.26
                             -180.93 -35033.64     20.94
                              -36.26     20.94 -35107.79

     hubbard stress (kbar)      0.00      0.00      0.00
                                0.00      0.00      0.00
                                0.00      0.00      0.00

     DFT-D   stress (kbar)      0.00      0.00      0.00
                                0.00      0.00      0.00
                                0.00      0.00      0.00

     XDM     stress (kbar)      0.00      0.00      0.00
                                0.00      0.00      0.00
                                0.00      0.00      0.00

     dft-nl  stress (kbar)      0.00      0.00      0.00
                                0.00      0.00      0.00
                                0.00      0.00      0.00

     TS-vdW  stress (kbar)      0.00      0.00      0.00
                                0.00      0.00      0.00
                                0.00      0.00      0.00

     MDB     stress (kbar)      0.00      0.00      0.00
                                0.00      0.00      0.00
                                0.00      0.00      0.00

     3D-RISM stress (kbar)      0.00      0.00      0.00
                                0.00      0.00      0.00
                                0.00      0.00      0.00


     Writing all to output data dir ./temp/mns.save/ :
     XML data file, charge density, pseudopotentials, collected wavefunctions

     init_run     :      2.47s CPU      2.58s WALL (       2 calls)
     electrons    :    881.06s CPU    915.99s WALL (      13 calls)
     update_pot   :      2.87s CPU      2.87s WALL (      11 calls)
     forces       :      5.09s CPU      5.14s WALL (      13 calls)
     stress       :     22.76s CPU     22.80s WALL (      13 calls)

     Called by init_run:
     wfcinit      :      1.20s CPU      1.29s WALL (       2 calls)
     wfcinit:atom :      0.01s CPU      0.01s WALL (     152 calls)
     wfcinit:wfcr :      1.11s CPU      1.20s WALL (     152 calls)
     potinit      :      0.71s CPU      0.72s WALL (       2 calls)
     hinit0       :      0.45s CPU      0.46s WALL (       2 calls)

     Called by electrons:
     c_bands      :    697.09s CPU    727.13s WALL (     305 calls)
     sum_band     :     92.99s CPU     97.72s WALL (     305 calls)
     v_of_rho     :      3.30s CPU      3.34s WALL (     311 calls)
     v_h          :      0.08s CPU      0.08s WALL (     311 calls)
     v_xc         :      3.52s CPU      3.57s WALL (     337 calls)
     newd         :     14.13s CPU     14.18s WALL (     311 calls)
     PAW_pot      :     79.12s CPU     79.16s WALL (     322 calls)
     mix_rho      :      0.57s CPU      0.58s WALL (     305 calls)

     Called by c_bands:
     init_us_2    :      7.52s CPU      7.82s WALL (   49324 calls)
     cegterg      :    677.31s CPU    706.90s WALL (   23180 calls)

     Called by sum_band:
     sum_band:wei :      0.26s CPU      0.27s WALL (     305 calls)
     sum_band:loo :     66.45s CPU     71.12s WALL (     305 calls)
     sum_band:buf :      0.55s CPU      0.58s WALL (   23180 calls)
     sum_band:ini :      3.34s CPU      3.53s WALL (   23180 calls)
     sum_band:cal :     20.66s CPU     21.99s WALL (   24016 calls)
     sum_band:bec :      1.08s CPU      1.14s WALL (   24016 calls)
     addusdens    :     25.90s CPU     25.95s WALL (     305 calls)
                                        0.00s GPU  (     305 calls)
     addusd:skk   :      0.03s CPU      0.03s WALL (     915 calls)
                                        0.00s GPU  (     915 calls)

     Called by *egterg:
     cdiaghg      :     83.08s CPU     85.32s WALL (  132882 calls)
     cegterg:over :     51.21s CPU     52.94s WALL (  111070 calls)
     cegterg:upda :     28.03s CPU     28.44s WALL (  111070 calls)
     cegterg:last :     68.94s CPU     69.84s WALL (   60046 calls)
     h_psi        :    370.26s CPU    391.42s WALL (  134402 calls)
     s_psi        :     56.71s CPU     59.43s WALL (  134402 calls)
     g_psi        :      1.43s CPU      1.45s WALL (  111070 calls)

     Called by h_psi:
     h_psi:calbec :     62.03s CPU     67.06s WALL (  134402 calls)
     vloc_psi     :    250.30s CPU    262.76s WALL (  134402 calls)
     add_vuspsi   :     56.00s CPU     59.65s WALL (  134402 calls)

     General routines
     calbec       :     86.79s CPU     93.20s WALL (  163358 calls)
     fft          :      1.43s CPU      1.46s WALL (    8294 calls)
     ffts         :      0.28s CPU      0.28s WALL (    1232 calls)
     fftw         :    259.35s CPU    273.16s WALL ( 4102442 calls)
     interpolate  :      0.36s CPU      0.37s WALL (     622 calls)

     Parallel routines

     PAW routines
     PAW_pot      :     79.12s CPU     79.16s WALL (     322 calls)
     PAW_symme    :      0.02s CPU      0.02s WALL (     627 calls)

     PWSCF        :  15m18.85s CPU  15m54.03s WALL


   This run was terminated on:  23:46:48  17Jan2025            

=------------------------------------------------------------------------------=
   JOB DONE.
=------------------------------------------------------------------------------=
