
     Program PWSCF v.7.3.1 starts on 31Jan2025 at 17:26:46 

     This program is part of the open-source Quantum ESPRESSO suite
     for quantum simulation of materials; please cite
         "P. Giannozzi et al., J. Phys.:Condens. Matter 21 395502 (2009);
         "P. Giannozzi et al., J. Phys.:Condens. Matter 29 465901 (2017);
         "P. Giannozzi et al., J. Chem. Phys. 152 154105 (2020);
          URL http://www.quantum-espresso.org", 
     in publications or presentations arising from this work. More details at
     http://www.quantum-espresso.org/quote

     Parallel version (MPI), running on     6 processors

     MPI processes distributed on     1 nodes
     1957 MiB available memory on the printing compute node when the environment starts

     Reading input from vc_relax.in

     Current dimensions of program PWSCF are:
     Max number of different atomic species (ntypx) = 10
     Max number of k-points (npk) =  40000
     Max angular momentum in pseudopotentials (lmaxx) =  4

     File ./temp/mns.update deleted, as requested

     File ./temp/mns.bfgs deleted, as requested
     file Mn.pbe-spn-kjpaw_psl.0.3.1.UPF: wavefunction(s)  3P 3D renormalized
     file Mn.pbe-spn-kjpaw_psl.0.3.1.UPF: wavefunction(s)  3P 3D renormalized
     file S.pbe-n-kjpaw_psl.1.0.0.UPF: wavefunction(s)  3S 3P renormalized
     Message from routine setup:
     using ibrav=0 with symmetry is DISCOURAGED, use correct ibrav instead

     R & G space division:  proc/nbgrp/npool/nimage =       6
     Subspace diagonalization in iterative solution of the eigenvalue problem:
     a serial algorithm will be used


     Parallelization info
     --------------------
     sticks:   dense  smooth     PW     G-vecs:    dense   smooth      PW
     Min         185     150     48                 2941     2116     382
     Max         188     151     50                 2942     2117     383
     Sum        1121     901    295                17651    12697    2297

     Using Slab Decomposition



     bravais-lattice index     =            0
     lattice parameter (alat)  =      14.7866  a.u.
     unit-cell volume          =     571.5148 (a.u.)^3
     number of atoms/cell      =            4
     number of atomic types    =            3
     number of electrons       =        42.00
     number of Kohn-Sham states=           25
     kinetic-energy cutoff     =      30.0000  Ry
     charge density cutoff     =     150.0000  Ry
     scf convergence threshold =      1.0E-10
     mixing beta               =       0.7000
     number of iterations used =            8  plain     mixing
     energy convergence thresh.=      1.0E-05
     force convergence thresh. =      1.0E-04
     press convergence thresh. =      5.0E-01
     Exchange-correlation= SLA  PW   PBX  PBC
                           (   1   4   3   4   0   0   0)
     nstep                     =           50


     celldm(1)=  14.786571  celldm(2)=   0.000000  celldm(3)=   0.000000
     celldm(4)=   0.000000  celldm(5)=   0.000000  celldm(6)=   0.000000

     crystal axes: (cart. coord. in units of alat)
               a(1) = (   1.000000   0.000000   0.000000 )  
               a(2) = (   0.250000   0.433013   0.000000 )  
               a(3) = (   0.250000   0.144338   0.408248 )  

     reciprocal axes: (cart. coord. in units 2 pi/alat)
               b(1) = (  1.000000 -0.577350 -0.408248 )  
               b(2) = (  0.000000  2.309401 -0.816496 )  
               b(3) = (  0.000000  0.000000  2.449490 )  


     PseudoPot. # 1 for Mn read from file:
     ./../../../pseudos/Mn.pbe-spn-kjpaw_psl.0.3.1.UPF
     MD5 check sum: ba19e6d7ccbc12830efad05ba8577d9c
     Pseudo is Projector augmented-wave + core cor, Zval = 15.0
     Generated using &quot;atomic&quot; code by A. Dal Corso  v.6.2.2
     Shape of augmentation charge: PSQ
     Using radial grid of 1187 points,  6 beta functions with: 
                l(1) =   0
                l(2) =   0
                l(3) =   1
                l(4) =   1
                l(5) =   2
                l(6) =   2
     Q(r) pseudized with 0 coefficients 


     PseudoPot. # 2 for Mn read from file:
     ./../../../pseudos/Mn.pbe-spn-kjpaw_psl.0.3.1.UPF
     MD5 check sum: ba19e6d7ccbc12830efad05ba8577d9c
     Pseudo is Projector augmented-wave + core cor, Zval = 15.0
     Generated using &quot;atomic&quot; code by A. Dal Corso  v.6.2.2
     Shape of augmentation charge: PSQ
     Using radial grid of 1187 points,  6 beta functions with: 
                l(1) =   0
                l(2) =   0
                l(3) =   1
                l(4) =   1
                l(5) =   2
                l(6) =   2
     Q(r) pseudized with 0 coefficients 


     PseudoPot. # 3 for S  read from file:
     ./../../../pseudos/S.pbe-n-kjpaw_psl.1.0.0.UPF
     MD5 check sum: fb45dfebcf3e72a4e1bd4a866ec2e262
     Pseudo is Projector augmented-wave + core cor, Zval =  6.0
     Generated using &quot;atomic&quot; code by A. Dal Corso  v.6.3
     Shape of augmentation charge: PSQ
     Using radial grid of 1151 points,  6 beta functions with: 
                l(1) =   0
                l(2) =   0
                l(3) =   1
                l(4) =   1
                l(5) =   2
                l(6) =   2
     Q(r) pseudized with 0 coefficients 


     atomic species   valence    mass     pseudopotential
     Mn1              15.00    54.93800     Mn( 1.00)
     Mn2              15.00    54.93800     Mn( 1.00)
     S                 6.00    32.06500     S ( 1.00)

     Starting magnetic structure 
     atomic species   magnetization
     Mn1             0.200
     Mn2             0.200
     S               0.000

      2 Sym. Ops. (no inversion) found


                                    s                        frac. trans.

      isym =  1     identity                                     

 cryst.   s( 1) = (     1          0          0      )
                  (     0          1          0      )
                  (     0          0          1      )

 cart.    s( 1) = (  1.0000000  0.0000000  0.0000000 )
                  (  0.0000000  1.0000000  0.0000000 )
                  (  0.0000000  0.0000000  1.0000000 )


      isym =  2     inv. 180 deg rotation - cryst. axis [1,1,0]  

 cryst.   s( 2) = (     1         -2          0      )
                  (     0         -1          0      )
                  (     0         -1          1      )

 cart.    s( 2) = (  0.5000001 -0.8660253 -0.0000000 )
                  ( -0.8660254 -0.5000001 -0.0000001 )
                  (  0.0000000  0.0000000  1.0000000 )


   Cartesian axes

     site n.     atom                  positions (alat units)
         1        Mn1    tau(   1) = (   0.7484265   0.4339211   0.3071759  )
         2        Mn2    tau(   2) = (   1.2484266   0.4339211   0.3071759  )
         3        S      tau(   3) = (   0.5015735   0.5764418   0.4072585  )
         4        S      tau(   4) = (   1.0015732   0.5764420   0.4072587  )

   Crystallographic axes

     site n.     atom                  positions (cryst. coord.)
         1        Mn1    tau(   1) = (  0.3724981  0.7512898  0.7524242  )
         2        Mn2    tau(   2) = (  0.8724981  0.7512898  0.7524243  )
         3        S      tau(   3) = (  0.0025022  0.9987100  0.9975756  )
         4        S      tau(   4) = (  0.5025017  0.9987104  0.9975759  )

     number of k points=    38  Gaussian smearing, width (Ry)=  0.0100
                       cart. coord. in units 2pi/alat
        k(    1) = (   0.0000000   0.0000000   0.0000000), wk =   0.0133333
        k(    2) = (   0.0000000   0.0000000   0.4898979), wk =   0.0266667
        k(    3) = (   0.0000000   0.0000000   0.9797958), wk =   0.0266667
        k(    4) = (   0.0000000   0.4618802  -0.1632993), wk =   0.0266667
        k(    5) = (   0.0000000   0.4618802   0.3265986), wk =   0.0266667
        k(    6) = (   0.0000000   0.4618802   0.8164966), wk =   0.0266667
        k(    7) = (   0.0000000   0.4618802  -1.1430951), wk =   0.0266667
        k(    8) = (   0.0000000   0.4618802  -0.6531972), wk =   0.0266667
        k(    9) = (   0.0000000   0.9237604  -0.3265986), wk =   0.0266667
        k(   10) = (   0.0000000   0.9237604   0.1632993), wk =   0.0266667
        k(   11) = (   0.0000000   0.9237604   0.6531973), wk =   0.0266667
        k(   12) = (   0.0000000   0.9237604  -1.3063944), wk =   0.0266667
        k(   13) = (   0.0000000   0.9237604  -0.8164965), wk =   0.0266667
        k(   14) = (   0.3333333  -0.1924501  -0.1360827), wk =   0.0266667
        k(   15) = (   0.3333333  -0.1924501   0.3538152), wk =   0.0266667
        k(   16) = (   0.3333333  -0.1924501   0.8437131), wk =   0.0266667
        k(   17) = (   0.3333333  -0.1924501  -1.1158786), wk =   0.0266667
        k(   18) = (   0.3333333  -0.1924501  -0.6259807), wk =   0.0266667
        k(   19) = (   0.3333333   0.2694301  -0.2993820), wk =   0.0266667
        k(   20) = (   0.3333333   0.2694301   0.1905159), wk =   0.0266667
        k(   21) = (   0.3333333   0.2694301   0.6804138), wk =   0.0266667
        k(   22) = (   0.3333333   0.2694301  -1.2791779), wk =   0.0266667
        k(   23) = (   0.3333333   0.2694301  -0.7892800), wk =   0.0266667
        k(   24) = (   0.3333333   0.7313103  -0.4626813), wk =   0.0266667
        k(   25) = (   0.3333333   0.7313103   0.0272166), wk =   0.0266667
        k(   26) = (   0.3333333   0.7313103   0.5171145), wk =   0.0266667
        k(   27) = (   0.3333333   0.7313103  -1.4424772), wk =   0.0266667
        k(   28) = (   0.3333333   0.7313103  -0.9525793), wk =   0.0266667
        k(   29) = (   0.3333333  -1.1162105   0.1905158), wk =   0.0266667
        k(   30) = (   0.3333333  -1.1162105   0.6804138), wk =   0.0266667
        k(   31) = (   0.3333333  -1.1162105   1.1703117), wk =   0.0266667
        k(   32) = (   0.3333333  -1.1162105  -0.7892800), wk =   0.0266667
        k(   33) = (   0.3333333  -1.1162105  -0.2993821), wk =   0.0266667
        k(   34) = (   0.3333333  -0.6543303   0.0272165), wk =   0.0266667
        k(   35) = (   0.3333333  -0.6543303   0.5171145), wk =   0.0266667
        k(   36) = (   0.3333333  -0.6543303   1.0070124), wk =   0.0266667
        k(   37) = (   0.3333333  -0.6543303  -0.9525793), wk =   0.0266667
        k(   38) = (   0.3333333  -0.6543303  -0.4626814), wk =   0.0266667

                       cryst. coord.
        k(    1) = (   0.0000000   0.0000000   0.0000000), wk =   0.0133333
        k(    2) = (   0.0000000   0.0000000   0.2000000), wk =   0.0266667
        k(    3) = (   0.0000000   0.0000000   0.4000000), wk =   0.0266667
        k(    4) = (   0.0000000   0.2000000   0.0000000), wk =   0.0266667
        k(    5) = (   0.0000000   0.2000000   0.2000000), wk =   0.0266667
        k(    6) = (   0.0000000   0.2000000   0.4000000), wk =   0.0266667
        k(    7) = (   0.0000000   0.2000000  -0.4000000), wk =   0.0266667
        k(    8) = (   0.0000000   0.2000000  -0.2000000), wk =   0.0266667
        k(    9) = (   0.0000000   0.4000000   0.0000000), wk =   0.0266667
        k(   10) = (   0.0000000   0.4000000   0.2000000), wk =   0.0266667
        k(   11) = (   0.0000000   0.4000000   0.4000000), wk =   0.0266667
        k(   12) = (   0.0000000   0.4000000  -0.4000000), wk =   0.0266667
        k(   13) = (   0.0000000   0.4000000  -0.2000000), wk =   0.0266667
        k(   14) = (   0.3333333  -0.0000000  -0.0000000), wk =   0.0266667
        k(   15) = (   0.3333333  -0.0000000   0.2000000), wk =   0.0266667
        k(   16) = (   0.3333333  -0.0000000   0.4000000), wk =   0.0266667
        k(   17) = (   0.3333333  -0.0000000  -0.4000000), wk =   0.0266667
        k(   18) = (   0.3333333  -0.0000000  -0.2000000), wk =   0.0266667
        k(   19) = (   0.3333333   0.2000000  -0.0000000), wk =   0.0266667
        k(   20) = (   0.3333333   0.2000000   0.2000000), wk =   0.0266667
        k(   21) = (   0.3333333   0.2000000   0.4000000), wk =   0.0266667
        k(   22) = (   0.3333333   0.2000000  -0.4000000), wk =   0.0266667
        k(   23) = (   0.3333333   0.2000000  -0.2000000), wk =   0.0266667
        k(   24) = (   0.3333333   0.4000000   0.0000000), wk =   0.0266667
        k(   25) = (   0.3333333   0.4000000   0.2000000), wk =   0.0266667
        k(   26) = (   0.3333333   0.4000000   0.4000000), wk =   0.0266667
        k(   27) = (   0.3333333   0.4000000  -0.4000000), wk =   0.0266667
        k(   28) = (   0.3333333   0.4000000  -0.2000000), wk =   0.0266667
        k(   29) = (   0.3333333  -0.4000000   0.0000000), wk =   0.0266667
        k(   30) = (   0.3333333  -0.4000000   0.2000000), wk =   0.0266667
        k(   31) = (   0.3333333  -0.4000000   0.4000000), wk =   0.0266667
        k(   32) = (   0.3333333  -0.4000000  -0.4000000), wk =   0.0266667
        k(   33) = (   0.3333333  -0.4000000  -0.2000000), wk =   0.0266667
        k(   34) = (   0.3333333  -0.2000000  -0.0000000), wk =   0.0266667
        k(   35) = (   0.3333333  -0.2000000   0.2000000), wk =   0.0266667
        k(   36) = (   0.3333333  -0.2000000   0.4000000), wk =   0.0266667
        k(   37) = (   0.3333333  -0.2000000  -0.4000000), wk =   0.0266667
        k(   38) = (   0.3333333  -0.2000000  -0.2000000), wk =   0.0266667

     Dense  grid:    17651 G-vectors     FFT dimensions: (  60,  30,  30)

     Smooth grid:    12697 G-vectors     FFT dimensions: (  54,  25,  25)

     Dynamical RAM for                 wfc:       0.10 MB

     Dynamical RAM for     wfc (w. buffer):       7.75 MB

     Dynamical RAM for           str. fact:       0.13 MB

     Dynamical RAM for           local pot:       0.00 MB

     Dynamical RAM for          nlocal pot:       0.29 MB

     Dynamical RAM for                qrad:       5.90 MB

     Dynamical RAM for          rho,v,vnew:       0.68 MB

     Dynamical RAM for               rhoin:       0.23 MB

     Dynamical RAM for            rho*nmix:       1.44 MB

     Dynamical RAM for           G-vectors:       0.18 MB

     Dynamical RAM for          h,s,v(r/c):       0.11 MB

     Dynamical RAM for          <psi|beta>:       0.03 MB

     Dynamical RAM for                 psi:       0.20 MB

     Dynamical RAM for                hpsi:       0.20 MB

     Dynamical RAM for                spsi:       0.20 MB

     Dynamical RAM for      wfcinit/wfcrot:       0.24 MB

     Dynamical RAM for           addusdens:       8.48 MB

     Dynamical RAM for          addusforce:       8.59 MB

     Dynamical RAM for         addusstress:       9.09 MB

     Estimated static dynamical RAM per process >      15.77 MB

     Estimated max dynamical RAM per process >      26.30 MB

     Estimated total dynamical RAM >     157.77 MB

     Check: negative core charge=   -0.000237
     Generating pointlists ...
     new r_m :   0.1246 (alat units)  1.8427 (a.u.) for type    1
     new r_m :   0.1246 (alat units)  1.8427 (a.u.) for type    2
     new r_m :   0.1246 (alat units)  1.8427 (a.u.) for type    3

     Initial potential from superposition of free atoms

     starting charge      41.9989, renormalised to      42.0000
     Starting wfcs are   28 randomized atomic wfcs
     Checking if some PAW data can be deallocated... 
       PAW data deallocated on    4 nodes for type:  1
       PAW data deallocated on    4 nodes for type:  2
       PAW data deallocated on    4 nodes for type:  3

     total cpu time spent up to now is        2.7 secs

     Self-consistent Calculation

     iteration #  1     ecut=    30.00 Ry     beta= 0.70
     Davidson diagonalization with overlap

---- Real-time Memory Report at c_bands before calling an iterative solver
            66 MiB given to the printing process from OS
             0 MiB allocation reported by mallinfo(arena+hblkhd)
          1630 MiB available memory on the node where the printing process lives
------------------
     ethr =  1.00E-02,  avg # of iterations =  2.0

     Threshold (ethr) on eigenvalues was too large:
     Diagonalizing with lowered threshold

     Davidson diagonalization with overlap

---- Real-time Memory Report at c_bands before calling an iterative solver
            66 MiB given to the printing process from OS
             0 MiB allocation reported by mallinfo(arena+hblkhd)
          1639 MiB available memory on the node where the printing process lives
------------------
     ethr =  2.84E-04,  avg # of iterations =  4.0

     total cpu time spent up to now is        8.0 secs

     total energy              =    -705.44516111 Ry
     estimated scf accuracy    <       0.09735628 Ry

     total magnetization       =     7.45 Bohr mag/cell
     absolute magnetization    =     7.45 Bohr mag/cell

     iteration #  2     ecut=    30.00 Ry     beta= 0.70
     Davidson diagonalization with overlap

---- Real-time Memory Report at c_bands before calling an iterative solver
            75 MiB given to the printing process from OS
             0 MiB allocation reported by mallinfo(arena+hblkhd)
          1632 MiB available memory on the node where the printing process lives
------------------
     ethr =  2.32E-04,  avg # of iterations =  2.3

     total cpu time spent up to now is       10.7 secs

     total energy              =    -705.46104648 Ry
     estimated scf accuracy    <       0.02069705 Ry

     total magnetization       =     7.70 Bohr mag/cell
     absolute magnetization    =     7.70 Bohr mag/cell

     iteration #  3     ecut=    30.00 Ry     beta= 0.70
     Davidson diagonalization with overlap

---- Real-time Memory Report at c_bands before calling an iterative solver
            76 MiB given to the printing process from OS
             0 MiB allocation reported by mallinfo(arena+hblkhd)
          1639 MiB available memory on the node where the printing process lives
------------------
     c_bands:  1 eigenvalues not converged
     ethr =  4.93E-05,  avg # of iterations =  9.3

     total cpu time spent up to now is       15.4 secs

     total energy              =    -705.40371357 Ry
     estimated scf accuracy    <       1.27963673 Ry

     total magnetization       =     7.29 Bohr mag/cell
     absolute magnetization    =     7.43 Bohr mag/cell

     iteration #  4     ecut=    30.00 Ry     beta= 0.70
     Davidson diagonalization with overlap

---- Real-time Memory Report at c_bands before calling an iterative solver
            76 MiB given to the printing process from OS
             0 MiB allocation reported by mallinfo(arena+hblkhd)
          1666 MiB available memory on the node where the printing process lives
------------------
     c_bands:  1 eigenvalues not converged
     c_bands:  1 eigenvalues not converged
     ethr =  4.93E-05,  avg # of iterations =  9.5

     total cpu time spent up to now is       19.7 secs

     total energy              =    -705.47056517 Ry
     estimated scf accuracy    <       0.03521329 Ry

     total magnetization       =     7.74 Bohr mag/cell
     absolute magnetization    =     7.77 Bohr mag/cell

     iteration #  5     ecut=    30.00 Ry     beta= 0.70
     Davidson diagonalization with overlap

---- Real-time Memory Report at c_bands before calling an iterative solver
            76 MiB given to the printing process from OS
             0 MiB allocation reported by mallinfo(arena+hblkhd)
          1654 MiB available memory on the node where the printing process lives
------------------
     ethr =  4.93E-05,  avg # of iterations =  3.8

     total cpu time spent up to now is       22.5 secs

     total energy              =    -705.47365646 Ry
     estimated scf accuracy    <       0.00614866 Ry

     total magnetization       =     7.78 Bohr mag/cell
     absolute magnetization    =     7.82 Bohr mag/cell

     iteration #  6     ecut=    30.00 Ry     beta= 0.70
     Davidson diagonalization with overlap

---- Real-time Memory Report at c_bands before calling an iterative solver
            76 MiB given to the printing process from OS
             0 MiB allocation reported by mallinfo(arena+hblkhd)
          1642 MiB available memory on the node where the printing process lives
------------------
     ethr =  1.46E-05,  avg # of iterations =  4.0

     total cpu time spent up to now is       25.3 secs

     total energy              =    -705.47479715 Ry
     estimated scf accuracy    <       0.00049186 Ry

     total magnetization       =     7.78 Bohr mag/cell
     absolute magnetization    =     7.85 Bohr mag/cell

     iteration #  7     ecut=    30.00 Ry     beta= 0.70
     Davidson diagonalization with overlap

---- Real-time Memory Report at c_bands before calling an iterative solver
            76 MiB given to the printing process from OS
             0 MiB allocation reported by mallinfo(arena+hblkhd)
          1646 MiB available memory on the node where the printing process lives
------------------
     ethr =  1.17E-06,  avg # of iterations =  7.1

     total cpu time spent up to now is       28.9 secs

     total energy              =    -705.47505049 Ry
     estimated scf accuracy    <       0.00019765 Ry

     total magnetization       =     7.79 Bohr mag/cell
     absolute magnetization    =     7.87 Bohr mag/cell

     iteration #  8     ecut=    30.00 Ry     beta= 0.70
     Davidson diagonalization with overlap

---- Real-time Memory Report at c_bands before calling an iterative solver
            76 MiB given to the printing process from OS
             0 MiB allocation reported by mallinfo(arena+hblkhd)
          1668 MiB available memory on the node where the printing process lives
------------------
     ethr =  4.71E-07,  avg # of iterations =  4.5

     total cpu time spent up to now is       32.0 secs

     total energy              =    -705.47509992 Ry
     estimated scf accuracy    <       0.00007262 Ry

     total magnetization       =     7.80 Bohr mag/cell
     absolute magnetization    =     7.88 Bohr mag/cell

     iteration #  9     ecut=    30.00 Ry     beta= 0.70
     Davidson diagonalization with overlap

---- Real-time Memory Report at c_bands before calling an iterative solver
            76 MiB given to the printing process from OS
             0 MiB allocation reported by mallinfo(arena+hblkhd)
          1668 MiB available memory on the node where the printing process lives
------------------
     ethr =  1.73E-07,  avg # of iterations =  4.3

     total cpu time spent up to now is       35.0 secs

     total energy              =    -705.47512126 Ry
     estimated scf accuracy    <       0.00000823 Ry

     total magnetization       =     7.81 Bohr mag/cell
     absolute magnetization    =     7.89 Bohr mag/cell

     iteration # 10     ecut=    30.00 Ry     beta= 0.70
     Davidson diagonalization with overlap

---- Real-time Memory Report at c_bands before calling an iterative solver
            77 MiB given to the printing process from OS
             0 MiB allocation reported by mallinfo(arena+hblkhd)
          1636 MiB available memory on the node where the printing process lives
------------------
     ethr =  1.96E-08,  avg # of iterations =  6.8

     total cpu time spent up to now is       38.6 secs

     total energy              =    -705.47512740 Ry
     estimated scf accuracy    <       0.00000277 Ry

     total magnetization       =     7.81 Bohr mag/cell
     absolute magnetization    =     7.89 Bohr mag/cell

     iteration # 11     ecut=    30.00 Ry     beta= 0.70
     Davidson diagonalization with overlap

---- Real-time Memory Report at c_bands before calling an iterative solver
            77 MiB given to the printing process from OS
             0 MiB allocation reported by mallinfo(arena+hblkhd)
          1658 MiB available memory on the node where the printing process lives
------------------
     ethr =  6.59E-09,  avg # of iterations =  4.0

     total cpu time spent up to now is       41.6 secs

     total energy              =    -705.47512893 Ry
     estimated scf accuracy    <       0.00000083 Ry

     total magnetization       =     7.81 Bohr mag/cell
     absolute magnetization    =     7.90 Bohr mag/cell

     iteration # 12     ecut=    30.00 Ry     beta= 0.70
     Davidson diagonalization with overlap

---- Real-time Memory Report at c_bands before calling an iterative solver
            77 MiB given to the printing process from OS
             0 MiB allocation reported by mallinfo(arena+hblkhd)
          1655 MiB available memory on the node where the printing process lives
------------------
     ethr =  1.98E-09,  avg # of iterations =  7.5

     total cpu time spent up to now is       45.3 secs

     total energy              =    -705.47513038 Ry
     estimated scf accuracy    <       0.00000047 Ry

     total magnetization       =     7.81 Bohr mag/cell
     absolute magnetization    =     7.90 Bohr mag/cell

     iteration # 13     ecut=    30.00 Ry     beta= 0.70
     Davidson diagonalization with overlap

---- Real-time Memory Report at c_bands before calling an iterative solver
            77 MiB given to the printing process from OS
             0 MiB allocation reported by mallinfo(arena+hblkhd)
          1634 MiB available memory on the node where the printing process lives
------------------
     ethr =  1.13E-09,  avg # of iterations =  4.1

     total cpu time spent up to now is       48.2 secs

     total energy              =    -705.47513063 Ry
     estimated scf accuracy    <       0.00000026 Ry

     total magnetization       =     7.81 Bohr mag/cell
     absolute magnetization    =     7.90 Bohr mag/cell

     iteration # 14     ecut=    30.00 Ry     beta= 0.70
     Davidson diagonalization with overlap

---- Real-time Memory Report at c_bands before calling an iterative solver
            77 MiB given to the printing process from OS
             0 MiB allocation reported by mallinfo(arena+hblkhd)
          1661 MiB available memory on the node where the printing process lives
------------------
     c_bands:  1 eigenvalues not converged
     ethr =  6.13E-10,  avg # of iterations =  8.0

     total cpu time spent up to now is       52.1 secs

     total energy              =    -705.47513093 Ry
     estimated scf accuracy    <       0.00000100 Ry

     total magnetization       =     7.81 Bohr mag/cell
     absolute magnetization    =     7.90 Bohr mag/cell

     iteration # 15     ecut=    30.00 Ry     beta= 0.70
     Davidson diagonalization with overlap

---- Real-time Memory Report at c_bands before calling an iterative solver
            77 MiB given to the printing process from OS
             0 MiB allocation reported by mallinfo(arena+hblkhd)
          1622 MiB available memory on the node where the printing process lives
------------------
     ethr =  6.13E-10,  avg # of iterations =  3.4

     total cpu time spent up to now is       54.7 secs

     total energy              =    -705.47513097 Ry
     estimated scf accuracy    <       0.00000006 Ry

     total magnetization       =     7.81 Bohr mag/cell
     absolute magnetization    =     7.90 Bohr mag/cell

     iteration # 16     ecut=    30.00 Ry     beta= 0.70
     Davidson diagonalization with overlap

---- Real-time Memory Report at c_bands before calling an iterative solver
            77 MiB given to the printing process from OS
             0 MiB allocation reported by mallinfo(arena+hblkhd)
          1631 MiB available memory on the node where the printing process lives
------------------
     c_bands:  1 eigenvalues not converged
     ethr =  1.46E-10,  avg # of iterations =  7.5

     total cpu time spent up to now is       58.5 secs

     total energy              =    -705.47513111 Ry
     estimated scf accuracy    <       0.00000010 Ry

     total magnetization       =     7.81 Bohr mag/cell
     absolute magnetization    =     7.90 Bohr mag/cell

     iteration # 17     ecut=    30.00 Ry     beta= 0.70
     Davidson diagonalization with overlap

---- Real-time Memory Report at c_bands before calling an iterative solver
            77 MiB given to the printing process from OS
             0 MiB allocation reported by mallinfo(arena+hblkhd)
          1658 MiB available memory on the node where the printing process lives
------------------
     ethr =  1.46E-10,  avg # of iterations =  4.2

     total cpu time spent up to now is       61.3 secs

     total energy              =    -705.47513113 Ry
     estimated scf accuracy    <          6.5E-09 Ry

     total magnetization       =     7.81 Bohr mag/cell
     absolute magnetization    =     7.90 Bohr mag/cell

     iteration # 18     ecut=    30.00 Ry     beta= 0.70
     Davidson diagonalization with overlap

---- Real-time Memory Report at c_bands before calling an iterative solver
            77 MiB given to the printing process from OS
             0 MiB allocation reported by mallinfo(arena+hblkhd)
          1652 MiB available memory on the node where the printing process lives
------------------
     c_bands:  2 eigenvalues not converged
     c_bands:  1 eigenvalues not converged
     ethr =  1.55E-11,  avg # of iterations =  8.2

     total cpu time spent up to now is       65.3 secs

     total energy              =    -705.47513114 Ry
     estimated scf accuracy    <          3.6E-09 Ry

     total magnetization       =     7.81 Bohr mag/cell
     absolute magnetization    =     7.90 Bohr mag/cell

     iteration # 19     ecut=    30.00 Ry     beta= 0.70
     Davidson diagonalization with overlap

---- Real-time Memory Report at c_bands before calling an iterative solver
            77 MiB given to the printing process from OS
             0 MiB allocation reported by mallinfo(arena+hblkhd)
          1659 MiB available memory on the node where the printing process lives
------------------
     ethr =  8.65E-12,  avg # of iterations =  4.5

     total cpu time spent up to now is       68.3 secs

     total energy              =    -705.47513114 Ry
     estimated scf accuracy    <          1.8E-09 Ry

     total magnetization       =     7.81 Bohr mag/cell
     absolute magnetization    =     7.90 Bohr mag/cell

     iteration # 20     ecut=    30.00 Ry     beta= 0.70
     Davidson diagonalization with overlap

---- Real-time Memory Report at c_bands before calling an iterative solver
            77 MiB given to the printing process from OS
             0 MiB allocation reported by mallinfo(arena+hblkhd)
          1645 MiB available memory on the node where the printing process lives
------------------
     ethr =  4.31E-12,  avg # of iterations =  5.8

     total cpu time spent up to now is       71.5 secs

     total energy              =    -705.47513114 Ry
     estimated scf accuracy    <          8.7E-10 Ry

     total magnetization       =     7.81 Bohr mag/cell
     absolute magnetization    =     7.90 Bohr mag/cell

     iteration # 21     ecut=    30.00 Ry     beta= 0.70
     Davidson diagonalization with overlap

---- Real-time Memory Report at c_bands before calling an iterative solver
            77 MiB given to the printing process from OS
             0 MiB allocation reported by mallinfo(arena+hblkhd)
          1665 MiB available memory on the node where the printing process lives
------------------
     ethr =  2.06E-12,  avg # of iterations =  2.8

     total cpu time spent up to now is       74.2 secs

     total energy              =    -705.47513114 Ry
     estimated scf accuracy    <          2.5E-10 Ry

     total magnetization       =     7.81 Bohr mag/cell
     absolute magnetization    =     7.90 Bohr mag/cell

     iteration # 22     ecut=    30.00 Ry     beta= 0.70
     Davidson diagonalization with overlap

---- Real-time Memory Report at c_bands before calling an iterative solver
            77 MiB given to the printing process from OS
             0 MiB allocation reported by mallinfo(arena+hblkhd)
          1672 MiB available memory on the node where the printing process lives
------------------
     c_bands:  1 eigenvalues not converged
     ethr =  6.07E-13,  avg # of iterations =  6.1

     total cpu time spent up to now is       77.9 secs

     total energy              =    -705.47513114 Ry
     estimated scf accuracy    <          2.1E-10 Ry

     total magnetization       =     7.81 Bohr mag/cell
     absolute magnetization    =     7.90 Bohr mag/cell

     iteration # 23     ecut=    30.00 Ry     beta= 0.70
     Davidson diagonalization with overlap

---- Real-time Memory Report at c_bands before calling an iterative solver
            77 MiB given to the printing process from OS
             0 MiB allocation reported by mallinfo(arena+hblkhd)
          1668 MiB available memory on the node where the printing process lives
------------------
     ethr =  5.01E-13,  avg # of iterations =  2.3

     Magnetic moment per site  (integrated on atomic sphere of radius R)
     atom   1 (R=0.125)  charge= 12.8567  magn=  3.4627
     atom   2 (R=0.125)  charge= 12.8568  magn=  3.4627
     atom   3 (R=0.125)  charge=  4.0108  magn= -0.0028
     atom   4 (R=0.125)  charge=  4.0108  magn= -0.0028

     total cpu time spent up to now is       80.5 secs

     End of self-consistent calculation

 ------ SPIN UP ------------


          k = 0.0000 0.0000 0.0000 (  1617 PWs)   bands (ev):

   -74.2086 -74.2080 -42.9383 -42.9381 -42.9325 -42.9322 -42.9239 -42.9207
    -6.3622  -5.6593   1.9301   2.9279   2.9737   2.9842   3.2296   3.2305
     4.8732   4.8842   5.0481   5.0547   5.3412   7.1896   7.1961   8.2899
     8.3044

     occupation numbers 
     1.0000   1.0000   1.0000   1.0000   1.0000   1.0000   1.0000   1.0000
     1.0000   1.0000   1.0000   1.0000   1.0000   1.0000   1.0000   1.0000
     1.0000   1.0000   1.0000   1.0000   1.0000   1.0000   1.0000   0.0002
     0.0001

          k = 0.0000 0.0000 0.4899 (  1600 PWs)   bands (ev):

   -74.2083 -74.2081 -42.9393 -42.9389 -42.9329 -42.9320 -42.9233 -42.9207
    -6.1407  -5.5899   2.1451   2.6048   3.0368   3.0549   3.0635   3.3306
     4.8935   4.9058   4.9234   5.0637   5.4258   6.5723   6.7464   6.8970
     7.9965

     occupation numbers 
     1.0000   1.0000   1.0000   1.0000   1.0000   1.0000   1.0000   1.0000
     1.0000   1.0000   1.0000   1.0000   1.0000   1.0000   1.0000   1.0000
     1.0000   1.0000   1.0000   1.0000   1.0000   1.0000   1.0000   1.0000
     0.3204

          k = 0.0000 0.0000 0.9798 (  1578 PWs)   bands (ev):

   -74.2080 -74.2078 -42.9405 -42.9402 -42.9331 -42.9324 -42.9223 -42.9212
    -5.7438  -5.4645   1.9055   2.0615   3.1381   3.1436   3.4582   3.5670
     4.8700   4.9970   5.0347   5.2180   5.4389   5.5904   6.1031   6.1148
     7.4216

     occupation numbers 
     1.0000   1.0000   1.0000   1.0000   1.0000   1.0000   1.0000   1.0000
     1.0000   1.0000   1.0000   1.0000   1.0000   1.0000   1.0000   1.0000
     1.0000   1.0000   1.0000   1.0000   1.0000   1.0000   1.0000   1.0000
     1.0000

          k = 0.0000 0.4619-0.1633 (  1600 PWs)   bands (ev):

   -74.2083 -74.2081 -42.9389 -42.9382 -42.9332 -42.9328 -42.9233 -42.9207
    -6.1403  -5.5899   2.1472   2.5947   3.0433   3.0491   3.0730   3.3330
     4.8995   4.9090   4.9189   5.0580   5.4277   6.5709   6.7451   6.8996
     7.9843

     occupation numbers 
     1.0000   1.0000   1.0000   1.0000   1.0000   1.0000   1.0000   1.0000
     1.0000   1.0000   1.0000   1.0000   1.0000   1.0000   1.0000   1.0000
     1.0000   1.0000   1.0000   1.0000   1.0000   1.0000   1.0000   1.0000
     0.3671

          k = 0.0000 0.4619 0.3266 (  1598 PWs)   bands (ev):

   -74.2082 -74.2080 -42.9387 -42.9384 -42.9331 -42.9327 -42.9230 -42.9211
    -6.0667  -5.6764   2.2807   2.4821   2.9626   3.0996   3.1444   3.2720
     4.7739   4.8571   4.9938   5.0592   5.7529   6.3207   7.2331   7.3158
     7.4242

     occupation numbers 
     1.0000   1.0000   1.0000   1.0000   1.0000   1.0000   1.0000   1.0000
     1.0000   1.0000   1.0000   1.0000   1.0000   1.0000   1.0000   1.0000
     1.0000   1.0000   1.0000   1.0000   1.0000   1.0000   1.0000   1.0000
     1.0000

          k = 0.0000 0.4619 0.8165 (  1588 PWs)   bands (ev):

   -74.2081 -74.2079 -42.9397 -42.9396 -42.9333 -42.9331 -42.9221 -42.9217
    -5.7237  -5.6001   2.1693   2.1775   3.0963   3.1400   3.2285   3.3648
     4.8273   4.8584   5.1087   5.1095   5.6395   5.8589   6.2712   6.8088
     6.8989

     occupation numbers 
     1.0000   1.0000   1.0000   1.0000   1.0000   1.0000   1.0000   1.0000
     1.0000   1.0000   1.0000   1.0000   1.0000   1.0000   1.0000   1.0000
     1.0000   1.0000   1.0000   1.0000   1.0000   1.0000   1.0000   1.0000
     1.0000

          k = 0.0000 0.4619-1.1431 (  1573 PWs)   bands (ev):

   -74.2078 -74.2078 -42.9404 -42.9402 -42.9336 -42.9330 -42.9220 -42.9215
    -5.5801  -5.4632   2.1431   2.2524   2.8953   3.1182   3.2773   3.5080
     4.8848   5.0094   5.0279   5.1002   5.3591   5.4909   5.9058   6.4141
     6.4158

     occupation numbers 
     1.0000   1.0000   1.0000   1.0000   1.0000   1.0000   1.0000   1.0000
     1.0000   1.0000   1.0000   1.0000   1.0000   1.0000   1.0000   1.0000
     1.0000   1.0000   1.0000   1.0000   1.0000   1.0000   1.0000   1.0000
     1.0000

          k = 0.0000 0.4619-0.6532 (  1585 PWs)   bands (ev):

   -74.2081 -74.2078 -42.9397 -42.9396 -42.9333 -42.9330 -42.9228 -42.9210
    -5.8565  -5.4590   2.3691   2.5082   2.6934   2.9832   3.1568   3.5282
     4.8402   4.8626   5.0272   5.0935   5.3951   5.7873   6.2872   6.4874
     6.6497

     occupation numbers 
     1.0000   1.0000   1.0000   1.0000   1.0000   1.0000   1.0000   1.0000
     1.0000   1.0000   1.0000   1.0000   1.0000   1.0000   1.0000   1.0000
     1.0000   1.0000   1.0000   1.0000   1.0000   1.0000   1.0000   1.0000
     1.0000

          k = 0.0000 0.9238-0.3266 (  1578 PWs)   bands (ev):

   -74.2080 -74.2078 -42.9393 -42.9391 -42.9339 -42.9339 -42.9224 -42.9212
    -5.7425  -5.4644   1.9069   2.0544   3.1470   3.1568   3.4452   3.5768
     4.8765   5.0023   5.0295   5.2100   5.4445   5.5846   6.0925   6.1206
     7.4044

     occupation numbers 
     1.0000   1.0000   1.0000   1.0000   1.0000   1.0000   1.0000   1.0000
     1.0000   1.0000   1.0000   1.0000   1.0000   1.0000   1.0000   1.0000
     1.0000   1.0000   1.0000   1.0000   1.0000   1.0000   1.0000   1.0000
     1.0000

          k = 0.0000 0.9238 0.1633 (  1588 PWs)   bands (ev):

   -74.2081 -74.2079 -42.9389 -42.9388 -42.9340 -42.9340 -42.9221 -42.9216
    -5.7229  -5.6000   2.1689   2.1731   3.0999   3.1496   3.2355   3.3617
     4.8253   4.8612   5.1042   5.1081   5.6361   5.8513   6.2758   6.8089
     6.8881

     occupation numbers 
     1.0000   1.0000   1.0000   1.0000   1.0000   1.0000   1.0000   1.0000
     1.0000   1.0000   1.0000   1.0000   1.0000   1.0000   1.0000   1.0000
     1.0000   1.0000   1.0000   1.0000   1.0000   1.0000   1.0000   1.0000
     1.0000

          k = 0.0000 0.9238 0.6532 (  1582 PWs)   bands (ev):

   -74.2080 -74.2079 -42.9393 -42.9391 -42.9339 -42.9339 -42.9222 -42.9215
    -5.6728  -5.5390   1.8912   2.0732   3.0974   3.1896   3.4584   3.5288
     4.7616   5.0148   5.0583   5.1573   5.4712   5.8442   6.1900   6.2819
     6.9714

     occupation numbers 
     1.0000   1.0000   1.0000   1.0000   1.0000   1.0000   1.0000   1.0000
     1.0000   1.0000   1.0000   1.0000   1.0000   1.0000   1.0000   1.0000
     1.0000   1.0000   1.0000   1.0000   1.0000   1.0000   1.0000   1.0000
     1.0000

          k = 0.0000 0.9238-1.3064 (  1588 PWs)   bands (ev):

   -74.2080 -74.2079 -42.9397 -42.9395 -42.9342 -42.9341 -42.9222 -42.9214
    -5.5921  -5.4487   2.0650   2.1651   2.9541   3.2709   3.2788   3.4568
     4.8159   4.9982   5.0504   5.0778   5.3572   5.3786   5.9585   6.3254
     6.6101

     occupation numbers 
     1.0000   1.0000   1.0000   1.0000   1.0000   1.0000   1.0000   1.0000
     1.0000   1.0000   1.0000   1.0000   1.0000   1.0000   1.0000   1.0000
     1.0000   1.0000   1.0000   1.0000   1.0000   1.0000   1.0000   1.0000
     1.0000

          k = 0.0000 0.9238-0.8165 (  1573 PWs)   bands (ev):

   -74.2079 -74.2078 -42.9395 -42.9395 -42.9342 -42.9340 -42.9220 -42.9214
    -5.5792  -5.4632   2.1423   2.2455   2.9065   3.1227   3.2838   3.5046
     4.8827   5.0078   5.0255   5.0961   5.3635   5.4893   5.9045   6.4110
     6.4167

     occupation numbers 
     1.0000   1.0000   1.0000   1.0000   1.0000   1.0000   1.0000   1.0000
     1.0000   1.0000   1.0000   1.0000   1.0000   1.0000   1.0000   1.0000
     1.0000   1.0000   1.0000   1.0000   1.0000   1.0000   1.0000   1.0000
     1.0000

          k = 0.3333-0.1925-0.1361 (  1605 PWs)   bands (ev):

   -74.2083 -74.2082 -42.9384 -42.9379 -42.9325 -42.9320 -42.9231 -42.9213
    -6.2011  -5.8523   2.1651   2.6576   3.0649   3.0731   3.1747   3.1772
     4.9010   4.9116   4.9285   4.9366   5.9186   7.2355   7.4810   7.4827
     8.0476

     occupation numbers 
     1.0000   1.0000   1.0000   1.0000   1.0000   1.0000   1.0000   1.0000
     1.0000   1.0000   1.0000   1.0000   1.0000   1.0000   1.0000   1.0000
     1.0000   1.0000   1.0000   1.0000   1.0000   1.0000   1.0000   1.0000
     0.1592

          k = 0.3333-0.1925 0.3538 (  1594 PWs)   bands (ev):

   -74.2083 -74.2079 -42.9392 -42.9388 -42.9325 -42.9324 -42.9231 -42.9209
    -6.1066  -5.6308   2.2651   2.5449   2.9451   3.0717   3.1070   3.3004
     4.7905   4.9137   4.9883   5.0394   5.6407   6.3056   7.2046   7.2552
     7.5513

     occupation numbers 
     1.0000   1.0000   1.0000   1.0000   1.0000   1.0000   1.0000   1.0000
     1.0000   1.0000   1.0000   1.0000   1.0000   1.0000   1.0000   1.0000
     1.0000   1.0000   1.0000   1.0000   1.0000   1.0000   1.0000   1.0000
     1.0000

          k = 0.3333-0.1925 0.8437 (  1583 PWs)   bands (ev):

   -74.2080 -74.2078 -42.9404 -42.9402 -42.9329 -42.9326 -42.9224 -42.9213
    -5.7436  -5.4708   2.1975   2.2568   2.9845   3.0751   3.2099   3.4420
     4.8261   4.8609   5.0577   5.1239   5.4556   5.8383   5.9853   6.4939
     7.0009

     occupation numbers 
     1.0000   1.0000   1.0000   1.0000   1.0000   1.0000   1.0000   1.0000
     1.0000   1.0000   1.0000   1.0000   1.0000   1.0000   1.0000   1.0000
     1.0000   1.0000   1.0000   1.0000   1.0000   1.0000   1.0000   1.0000
     1.0000

          k = 0.3333-0.1925-1.1159 (  1581 PWs)   bands (ev):

   -74.2079 -74.2079 -42.9405 -42.9401 -42.9330 -42.9325 -42.9219 -42.9218
    -5.6117  -5.6054   1.9783   2.1863   2.9597   3.2404   3.3677   3.4314
     4.7537   5.0232   5.0263   5.1885   5.4536   5.9836   6.3676   6.4329
     6.5770

     occupation numbers 
     1.0000   1.0000   1.0000   1.0000   1.0000   1.0000   1.0000   1.0000
     1.0000   1.0000   1.0000   1.0000   1.0000   1.0000   1.0000   1.0000
     1.0000   1.0000   1.0000   1.0000   1.0000   1.0000   1.0000   1.0000
     1.0000

          k = 0.3333-0.1925-0.6260 (  1602 PWs)   bands (ev):

   -74.2082 -74.2082 -42.9392 -42.9390 -42.9327 -42.9322 -42.9221 -42.9219
    -5.9151  -5.8398   2.2331   2.3753   3.0448   3.1602   3.1835   3.2448
     4.7392   4.8434   5.0160   5.0623   6.3335   6.3993   6.8292   6.9507
     7.1350

     occupation numbers 
     1.0000   1.0000   1.0000   1.0000   1.0000   1.0000   1.0000   1.0000
     1.0000   1.0000   1.0000   1.0000   1.0000   1.0000   1.0000   1.0000
     1.0000   1.0000   1.0000   1.0000   1.0000   1.0000   1.0000   1.0000
     1.0000

          k = 0.3333 0.2694-0.2994 (  1594 PWs)   bands (ev):

   -74.2083 -74.2079 -42.9386 -42.9384 -42.9331 -42.9327 -42.9231 -42.9209
    -6.1066  -5.6304   2.2652   2.5457   2.9482   3.0629   3.1153   3.3035
     4.7979   4.9081   4.9800   5.0417   5.6370   6.3026   7.2021   7.2612
     7.5408

     occupation numbers 
     1.0000   1.0000   1.0000   1.0000   1.0000   1.0000   1.0000   1.0000
     1.0000   1.0000   1.0000   1.0000   1.0000   1.0000   1.0000   1.0000
     1.0000   1.0000   1.0000   1.0000   1.0000   1.0000   1.0000   1.0000
     1.0000

          k = 0.3333 0.2694 0.1905 (  1598 PWs)   bands (ev):

   -74.2083 -74.2080 -42.9388 -42.9382 -42.9331 -42.9327 -42.9235 -42.9206
    -6.1571  -5.5698   2.1679   2.6251   3.0174   3.0237   3.0680   3.3455
     4.8869   4.9137   4.9347   5.0494   5.3747   6.4903   6.8068   6.9927
     7.9342

     occupation numbers 
     1.0000   1.0000   1.0000   1.0000   1.0000   1.0000   1.0000   1.0000
     1.0000   1.0000   1.0000   1.0000   1.0000   1.0000   1.0000   1.0000
     1.0000   1.0000   1.0000   1.0000   1.0000   1.0000   1.0000   1.0000
     0.5719

          k = 0.3333 0.2694 0.6804 (  1583 PWs)   bands (ev):

   -74.2082 -74.2077 -42.9396 -42.9396 -42.9333 -42.9330 -42.9227 -42.9211
    -5.8527  -5.4633   2.3567   2.4694   2.7423   2.9857   3.1586   3.5274
     4.8249   4.8946   5.0298   5.0682   5.4290   5.8088   6.2542   6.5172
     6.6651

     occupation numbers 
     1.0000   1.0000   1.0000   1.0000   1.0000   1.0000   1.0000   1.0000
     1.0000   1.0000   1.0000   1.0000   1.0000   1.0000   1.0000   1.0000
     1.0000   1.0000   1.0000   1.0000   1.0000   1.0000   1.0000   1.0000
     1.0000

          k = 0.3333 0.2694-1.2792 (  1576 PWs)   bands (ev):

   -74.2079 -74.2078 -42.9404 -42.9402 -42.9336 -42.9331 -42.9220 -42.9215
    -5.5873  -5.4550   2.1051   2.2080   2.9271   3.1903   3.2618   3.5006
     4.8634   5.0084   5.0301   5.1160   5.3582   5.4335   5.9405   6.3779
     6.5176

     occupation numbers 
     1.0000   1.0000   1.0000   1.0000   1.0000   1.0000   1.0000   1.0000
     1.0000   1.0000   1.0000   1.0000   1.0000   1.0000   1.0000   1.0000
     1.0000   1.0000   1.0000   1.0000   1.0000   1.0000   1.0000   1.0000
     1.0000

          k = 0.3333 0.2694-0.7893 (  1589 PWs)   bands (ev):

   -74.2081 -74.2079 -42.9397 -42.9396 -42.9333 -42.9331 -42.9223 -42.9216
    -5.7611  -5.5614   2.2031   2.2057   3.0463   3.1092   3.2102   3.4107
     4.8139   4.8831   5.0847   5.0959   5.6016   5.9374   6.0862   6.7474
     6.8914

     occupation numbers 
     1.0000   1.0000   1.0000   1.0000   1.0000   1.0000   1.0000   1.0000
     1.0000   1.0000   1.0000   1.0000   1.0000   1.0000   1.0000   1.0000
     1.0000   1.0000   1.0000   1.0000   1.0000   1.0000   1.0000   1.0000
     1.0000

          k = 0.3333 0.7313-0.4627 (  1583 PWs)   bands (ev):

   -74.2080 -74.2078 -42.9393 -42.9390 -42.9340 -42.9338 -42.9225 -42.9213
    -5.7428  -5.4703   2.1936   2.2602   2.9800   3.0786   3.2201   3.4505
     4.8264   4.8654   5.0514   5.1171   5.4530   5.8359   5.9891   6.4825
     6.9854

     occupation numbers 
     1.0000   1.0000   1.0000   1.0000   1.0000   1.0000   1.0000   1.0000
     1.0000   1.0000   1.0000   1.0000   1.0000   1.0000   1.0000   1.0000
     1.0000   1.0000   1.0000   1.0000   1.0000   1.0000   1.0000   1.0000
     1.0000

          k = 0.3333 0.7313 0.0272 (  1583 PWs)   bands (ev):

   -74.2082 -74.2077 -42.9389 -42.9387 -42.9340 -42.9339 -42.9227 -42.9210
    -5.8520  -5.4632   2.3506   2.4724   2.7399   2.9910   3.1693   3.5278
     4.8311   4.8941   5.0311   5.0595   5.4247   5.8082   6.2514   6.5185
     6.6520

     occupation numbers 
     1.0000   1.0000   1.0000   1.0000   1.0000   1.0000   1.0000   1.0000
     1.0000   1.0000   1.0000   1.0000   1.0000   1.0000   1.0000   1.0000
     1.0000   1.0000   1.0000   1.0000   1.0000   1.0000   1.0000   1.0000
     1.0000

          k = 0.3333 0.7313 0.5171 (  1587 PWs)   bands (ev):

   -74.2081 -74.2079 -42.9392 -42.9391 -42.9340 -42.9339 -42.9223 -42.9216
    -5.6996  -5.5170   2.1458   2.3596   2.8226   3.1501   3.2925   3.3717
     4.8030   4.8735   5.0304   5.1262   5.4931   5.9252   6.1121   6.7096
     6.7628

     occupation numbers 
     1.0000   1.0000   1.0000   1.0000   1.0000   1.0000   1.0000   1.0000
     1.0000   1.0000   1.0000   1.0000   1.0000   1.0000   1.0000   1.0000
     1.0000   1.0000   1.0000   1.0000   1.0000   1.0000   1.0000   1.0000
     1.0000

          k = 0.3333 0.7313-1.4425 (  1573 PWs)   bands (ev):

   -74.2079 -74.2078 -42.9397 -42.9393 -42.9342 -42.9339 -42.9219 -42.9216
    -5.5582  -5.4868   2.2601   2.3610   2.7998   2.9538   3.3238   3.4883
     4.9373   4.9437   5.0219   5.0545   5.4744   5.5595   5.8592   6.1609
     6.5453

     occupation numbers 
     1.0000   1.0000   1.0000   1.0000   1.0000   1.0000   1.0000   1.0000
     1.0000   1.0000   1.0000   1.0000   1.0000   1.0000   1.0000   1.0000
     1.0000   1.0000   1.0000   1.0000   1.0000   1.0000   1.0000   1.0000
     1.0000

          k = 0.3333 0.7313-0.9526 (  1579 PWs)   bands (ev):

   -74.2079 -74.2079 -42.9397 -42.9394 -42.9342 -42.9339 -42.9218 -42.9218
    -5.5306  -5.5160   2.3853   2.4194   2.7509   2.7939   3.3911   3.4258
     4.9139   4.9173   5.0181   5.0234   5.6036   5.6088   5.8572   5.9343
     6.7105

     occupation numbers 
     1.0000   1.0000   1.0000   1.0000   1.0000   1.0000   1.0000   1.0000
     1.0000   1.0000   1.0000   1.0000   1.0000   1.0000   1.0000   1.0000
     1.0000   1.0000   1.0000   1.0000   1.0000   1.0000   1.0000   1.0000
     1.0000

          k = 0.3333-1.1162 0.1905 (  1581 PWs)   bands (ev):

   -74.2079 -74.2079 -42.9392 -42.9391 -42.9339 -42.9339 -42.9219 -42.9218
    -5.6105  -5.6052   1.9792   2.1806   2.9717   3.2493   3.3580   3.4420
     4.7583   5.0163   5.0281   5.1805   5.4502   5.9862   6.3549   6.4409
     6.5673

     occupation numbers 
     1.0000   1.0000   1.0000   1.0000   1.0000   1.0000   1.0000   1.0000
     1.0000   1.0000   1.0000   1.0000   1.0000   1.0000   1.0000   1.0000
     1.0000   1.0000   1.0000   1.0000   1.0000   1.0000   1.0000   1.0000
     1.0000

          k = 0.3333-1.1162 0.6804 (  1576 PWs)   bands (ev):

   -74.2079 -74.2078 -42.9397 -42.9394 -42.9342 -42.9340 -42.9220 -42.9215
    -5.5862  -5.4552   2.1045   2.2024   2.9341   3.1940   3.2752   3.4922
     4.8648   5.0069   5.0300   5.1112   5.3649   5.4274   5.9398   6.3837
     6.5051

     occupation numbers 
     1.0000   1.0000   1.0000   1.0000   1.0000   1.0000   1.0000   1.0000
     1.0000   1.0000   1.0000   1.0000   1.0000   1.0000   1.0000   1.0000
     1.0000   1.0000   1.0000   1.0000   1.0000   1.0000   1.0000   1.0000
     1.0000

          k = 0.3333-1.1162 1.1703 (  1573 PWs)   bands (ev):

   -74.2079 -74.2078 -42.9395 -42.9394 -42.9342 -42.9339 -42.9219 -42.9217
    -5.5586  -5.4864   2.2588   2.3591   2.8028   2.9578   3.3168   3.4926
     4.9377   4.9405   5.0238   5.0492   5.4720   5.5650   5.8574   6.1691
     6.5436

     occupation numbers 
     1.0000   1.0000   1.0000   1.0000   1.0000   1.0000   1.0000   1.0000
     1.0000   1.0000   1.0000   1.0000   1.0000   1.0000   1.0000   1.0000
     1.0000   1.0000   1.0000   1.0000   1.0000   1.0000   1.0000   1.0000
     1.0000

          k = 0.3333-1.1162-0.7893 (  1577 PWs)   bands (ev):

   -74.2080 -74.2078 -42.9393 -42.9390 -42.9340 -42.9338 -42.9225 -42.9211
    -5.7617  -5.4454   2.0070   2.1174   3.1250   3.1641   3.3194   3.5510
     4.8739   4.9513   5.0702   5.1374   5.3347   5.6860   6.0393   6.1737
     7.3256

     occupation numbers 
     1.0000   1.0000   1.0000   1.0000   1.0000   1.0000   1.0000   1.0000
     1.0000   1.0000   1.0000   1.0000   1.0000   1.0000   1.0000   1.0000
     1.0000   1.0000   1.0000   1.0000   1.0000   1.0000   1.0000   1.0000
     1.0000

          k = 0.3333-1.1162-0.2994 (  1580 PWs)   bands (ev):

   -74.2081 -74.2078 -42.9389 -42.9387 -42.9340 -42.9339 -42.9224 -42.9212
    -5.7925  -5.5268   2.2422   2.2549   2.9826   3.0891   3.2135   3.4490
     4.8347   4.9057   5.0504   5.0933   5.5727   5.9494   6.0319   6.6753
     6.8531

     occupation numbers 
     1.0000   1.0000   1.0000   1.0000   1.0000   1.0000   1.0000   1.0000
     1.0000   1.0000   1.0000   1.0000   1.0000   1.0000   1.0000   1.0000
     1.0000   1.0000   1.0000   1.0000   1.0000   1.0000   1.0000   1.0000
     1.0000

          k = 0.3333-0.6543 0.0272 (  1602 PWs)   bands (ev):

   -74.2082 -74.2082 -42.9387 -42.9384 -42.9330 -42.9330 -42.9222 -42.9219
    -5.9145  -5.8399   2.2355   2.3692   3.0535   3.1671   3.1718   3.2504
     4.7467   4.8357   5.0221   5.0549   6.3399   6.3941   6.8230   6.9455
     7.1387

     occupation numbers 
     1.0000   1.0000   1.0000   1.0000   1.0000   1.0000   1.0000   1.0000
     1.0000   1.0000   1.0000   1.0000   1.0000   1.0000   1.0000   1.0000
     1.0000   1.0000   1.0000   1.0000   1.0000   1.0000   1.0000   1.0000
     1.0000

          k = 0.3333-0.6543 0.5171 (  1589 PWs)   bands (ev):

   -74.2081 -74.2079 -42.9397 -42.9396 -42.9332 -42.9331 -42.9223 -42.9215
    -5.7605  -5.5619   2.2018   2.2050   3.0400   3.1101   3.2218   3.4047
     4.8062   4.8915   5.0810   5.1032   5.6070   5.9356   6.0889   6.7522
     6.8842

     occupation numbers 
     1.0000   1.0000   1.0000   1.0000   1.0000   1.0000   1.0000   1.0000
     1.0000   1.0000   1.0000   1.0000   1.0000   1.0000   1.0000   1.0000
     1.0000   1.0000   1.0000   1.0000   1.0000   1.0000   1.0000   1.0000
     1.0000

          k = 0.3333-0.6543 1.0070 (  1579 PWs)   bands (ev):

   -74.2079 -74.2079 -42.9403 -42.9403 -42.9334 -42.9333 -42.9219 -42.9218
    -5.5313  -5.5161   2.3853   2.4224   2.7452   2.7932   3.3832   3.4250
     4.9121   4.9192   5.0220   5.0221   5.6066   5.6167   5.8571   5.9411
     6.7110

     occupation numbers 
     1.0000   1.0000   1.0000   1.0000   1.0000   1.0000   1.0000   1.0000
     1.0000   1.0000   1.0000   1.0000   1.0000   1.0000   1.0000   1.0000
     1.0000   1.0000   1.0000   1.0000   1.0000   1.0000   1.0000   1.0000
     1.0000

          k = 0.3333-0.6543-0.9526 (  1580 PWs)   bands (ev):

   -74.2081 -74.2078 -42.9397 -42.9396 -42.9332 -42.9331 -42.9224 -42.9212
    -5.7928  -5.5273   2.2438   2.2564   2.9757   3.0840   3.2124   3.4456
     4.8270   4.9127   5.0497   5.1038   5.5805   5.9472   6.0372   6.6783
     6.8578

     occupation numbers 
     1.0000   1.0000   1.0000   1.0000   1.0000   1.0000   1.0000   1.0000
     1.0000   1.0000   1.0000   1.0000   1.0000   1.0000   1.0000   1.0000
     1.0000   1.0000   1.0000   1.0000   1.0000   1.0000   1.0000   1.0000
     1.0000

          k = 0.3333-0.6543-0.4627 (  1599 PWs)   bands (ev):

   -74.2082 -74.2081 -42.9387 -42.9384 -42.9331 -42.9329 -42.9225 -42.9215
    -5.9736  -5.7780   2.1906   2.4105   3.0623   3.1415   3.1622   3.2777
     4.7607   4.8567   5.0296   5.0786   6.0936   6.5082   6.8612   7.0178
     7.0940

     occupation numbers 
     1.0000   1.0000   1.0000   1.0000   1.0000   1.0000   1.0000   1.0000
     1.0000   1.0000   1.0000   1.0000   1.0000   1.0000   1.0000   1.0000
     1.0000   1.0000   1.0000   1.0000   1.0000   1.0000   1.0000   1.0000
     1.0000

 ------ SPIN DOWN ----------


          k = 0.0000 0.0000 0.0000 (  1617 PWs)   bands (ev):

   -70.3068 -70.3062 -39.1804 -39.1757 -39.0421 -39.0416 -39.0358 -39.0354
    -6.2419  -5.5770   2.2596   3.9856   4.1410   4.1642   4.2777   4.2905
     8.1930   8.4221   8.4239   8.5612   8.5716   9.5491   9.5673   9.7106
    10.5381

     occupation numbers 
     1.0000   1.0000   1.0000   1.0000   1.0000   1.0000   1.0000   1.0000
     1.0000   1.0000   1.0000   1.0000   1.0000   1.0000   1.0000   1.0000
     0.0061   0.0000   0.0000   0.0000   0.0000   0.0000   0.0000   0.0000
     0.0000

          k = 0.0000 0.0000 0.4899 (  1600 PWs)   bands (ev):

   -70.3065 -70.3063 -39.1796 -39.1757 -39.0433 -39.0429 -39.0364 -39.0353
    -6.0318  -5.5114   2.5569   3.4205   3.8488   4.0656   4.1787   4.2357
     7.8462   8.3861   8.3903   8.4008   8.5823   9.3758   9.5031   9.5654
    10.2939

     occupation numbers 
     1.0000   1.0000   1.0000   1.0000   1.0000   1.0000   1.0000   1.0000
     1.0000   1.0000   1.0000   1.0000   1.0000   1.0000   1.0000   1.0000
     0.8633   0.0000   0.0000   0.0000   0.0000   0.0000   0.0000   0.0000
     0.0000

          k = 0.0000 0.0000 0.9798 (  1578 PWs)   bands (ev):

   -70.3063 -70.3060 -39.1785 -39.1764 -39.0454 -39.0446 -39.0367 -39.0358
    -5.6560  -5.3936   2.4777   2.4975   3.9580   4.1248   4.1782   4.2088
     7.4268   8.4064   8.4740   8.5293   8.6187   8.7900   9.0918   9.1135
     9.6864

     occupation numbers 
     1.0000   1.0000   1.0000   1.0000   1.0000   1.0000   1.0000   1.0000
     1.0000   1.0000   1.0000   1.0000   1.0000   1.0000   1.0000   1.0000
     1.0000   0.0000   0.0000   0.0000   0.0000   0.0000   0.0000   0.0000
     0.0000

          k = 0.0000 0.4619-0.1633 (  1600 PWs)   bands (ev):

   -70.3065 -70.3062 -39.1795 -39.1758 -39.0428 -39.0419 -39.0369 -39.0362
    -6.0314  -5.5114   2.5552   3.4118   3.8404   4.0639   4.1968   4.2471
     7.8388   8.3816   8.3906   8.4005   8.5894   9.3839   9.4955   9.5615
    10.2765

     occupation numbers 
     1.0000   1.0000   1.0000   1.0000   1.0000   1.0000   1.0000   1.0000
     1.0000   1.0000   1.0000   1.0000   1.0000   1.0000   1.0000   1.0000
     0.8795   0.0000   0.0000   0.0000   0.0000   0.0000   0.0000   0.0000
     0.0000

          k = 0.0000 0.4619 0.3266 (  1598 PWs)   bands (ev):

   -70.3064 -70.3063 -39.1791 -39.1764 -39.0425 -39.0422 -39.0368 -39.0362
    -5.9617  -5.5930   2.7185   3.3335   3.7362   4.0508   4.1593   4.2949
     8.0339   8.1351   8.2207   8.6035   8.7188   9.2176   9.8251   9.8982
     9.9518

     occupation numbers 
     1.0000   1.0000   1.0000   1.0000   1.0000   1.0000   1.0000   1.0000
     1.0000   1.0000   1.0000   1.0000   1.0000   1.0000   1.0000   1.0000
     0.1960   0.0282   0.0026   0.0000   0.0000   0.0000   0.0000   0.0000
     0.0000

          k = 0.0000 0.4619 0.8165 (  1588 PWs)   bands (ev):

   -70.3063 -70.3062 -39.1780 -39.1771 -39.0442 -39.0437 -39.0371 -39.0366
    -5.6373  -5.5209   2.7234   2.7540   3.7728   3.9856   4.0881   4.1463
     7.8000   7.9243   8.3306   8.6989   8.7440   8.8253   9.1217   9.3570
     9.6886

     occupation numbers 
     1.0000   1.0000   1.0000   1.0000   1.0000   1.0000   1.0000   1.0000
     1.0000   1.0000   1.0000   1.0000   1.0000   1.0000   1.0000   1.0000
     0.9424   0.6116   0.0000   0.0000   0.0000   0.0000   0.0000   0.0000
     0.0000

          k = 0.0000 0.4619-1.1431 (  1573 PWs)   bands (ev):

   -70.3061 -70.3061 -39.1779 -39.1768 -39.0452 -39.0447 -39.0375 -39.0367
    -5.5017  -5.3920   2.6439   2.7244   3.6452   3.6638   4.0562   4.1685
     7.4987   8.0240   8.2644   8.4078   8.6700   8.7315   9.0831   9.3437
     9.4492

     occupation numbers 
     1.0000   1.0000   1.0000   1.0000   1.0000   1.0000   1.0000   1.0000
     1.0000   1.0000   1.0000   1.0000   1.0000   1.0000   1.0000   1.0000
     1.0000   0.2260   0.0006   0.0000   0.0000   0.0000   0.0000   0.0000
     0.0000

          k = 0.0000 0.4619-0.6532 (  1585 PWs)   bands (ev):

   -70.3063 -70.3061 -39.1789 -39.1762 -39.0441 -39.0439 -39.0371 -39.0365
    -5.7627  -5.3880   2.9857   2.9979   3.2861   3.8186   4.0892   4.1830
     7.4705   8.1618   8.1745   8.6001   8.7746   8.9435   9.0528   9.4265
     9.6121

     occupation numbers 
     1.0000   1.0000   1.0000   1.0000   1.0000   1.0000   1.0000   1.0000
     1.0000   1.0000   1.0000   1.0000   1.0000   1.0000   1.0000   1.0000
     1.0000   0.0145   0.0102   0.0000   0.0000   0.0000   0.0000   0.0000
     0.0000

          k = 0.0000 0.9238-0.3266 (  1578 PWs)   bands (ev):

   -70.3063 -70.3060 -39.1783 -39.1766 -39.0436 -39.0431 -39.0379 -39.0378
    -5.6550  -5.3936   2.4724   2.4898   3.9536   4.1285   4.1923   4.2277
     7.4160   8.4103   8.4660   8.5297   8.6050   8.7951   9.0970   9.1162
     9.6621

     occupation numbers 
     1.0000   1.0000   1.0000   1.0000   1.0000   1.0000   1.0000   1.0000
     1.0000   1.0000   1.0000   1.0000   1.0000   1.0000   1.0000   1.0000
     1.0000   0.0000   0.0000   0.0000   0.0000   0.0000   0.0000   0.0000
     0.0000

          k = 0.0000 0.9238 0.1633 (  1588 PWs)   bands (ev):

   -70.3063 -70.3062 -39.1779 -39.1772 -39.0429 -39.0427 -39.0381 -39.0380
    -5.6367  -5.5209   2.7163   2.7493   3.7764   3.9934   4.0963   4.1504
     7.7938   7.9208   8.3373   8.6851   8.7402   8.8235   9.1257   9.3460
     9.6902

     occupation numbers 
     1.0000   1.0000   1.0000   1.0000   1.0000   1.0000   1.0000   1.0000
     1.0000   1.0000   1.0000   1.0000   1.0000   1.0000   1.0000   1.0000
     0.9495   0.6254   0.0000   0.0000   0.0000   0.0000   0.0000   0.0000
     0.0000

          k = 0.0000 0.9238 0.6532 (  1582 PWs)   bands (ev):

   -70.3062 -70.3061 -39.1779 -39.1771 -39.0436 -39.0432 -39.0379 -39.0379
    -5.5892  -5.4637   2.4617   2.5119   3.9856   4.0722   4.1773   4.2473
     7.4525   8.3355   8.4614   8.6299   8.7981   8.8840   8.9912   9.0413
     9.3866

     occupation numbers 
     1.0000   1.0000   1.0000   1.0000   1.0000   1.0000   1.0000   1.0000
     1.0000   1.0000   1.0000   1.0000   1.0000   1.0000   1.0000   1.0000
     1.0000   0.0000   0.0000   0.0000   0.0000   0.0000   0.0000   0.0000
     0.0000

          k = 0.0000 0.9238-1.3064 (  1588 PWs)   bands (ev):

   -70.3062 -70.3061 -39.1780 -39.1770 -39.0442 -39.0437 -39.0383 -39.0382
    -5.5130  -5.3784   2.5443   2.6496   3.6749   3.8374   4.1119   4.1324
     7.4508   8.0827   8.3987   8.4216   8.5438   8.6172   9.1874   9.2476
     9.4287

     occupation numbers 
     1.0000   1.0000   1.0000   1.0000   1.0000   1.0000   1.0000   1.0000
     1.0000   1.0000   1.0000   1.0000   1.0000   1.0000   1.0000   1.0000
     1.0000   0.0865   0.0000   0.0000   0.0000   0.0000   0.0000   0.0000
     0.0000

          k = 0.0000 0.9238-0.8165 (  1573 PWs)   bands (ev):

   -70.3061 -70.3061 -39.1778 -39.1770 -39.0439 -39.0438 -39.0383 -39.0380
    -5.5010  -5.3920   2.6387   2.7148   3.6581   3.6735   4.0533   4.1742
     7.4939   8.0158   8.2637   8.4034   8.6679   8.7373   9.0879   9.3407
     9.4499

     occupation numbers 
     1.0000   1.0000   1.0000   1.0000   1.0000   1.0000   1.0000   1.0000
     1.0000   1.0000   1.0000   1.0000   1.0000   1.0000   1.0000   1.0000
     1.0000   0.2522   0.0006   0.0000   0.0000   0.0000   0.0000   0.0000
     0.0000

          k = 0.3333-0.1925-0.1361 (  1605 PWs)   bands (ev):

   -70.3065 -70.3064 -39.1791 -39.1767 -39.0421 -39.0415 -39.0358 -39.0352
    -6.0892  -5.7590   2.6407   3.4834   4.1871   4.2079   4.2482   4.2638
     8.3920   8.3922   8.3949   8.3993   8.6578   9.6101   9.8998   9.9149
    10.4322

     occupation numbers 
     1.0000   1.0000   1.0000   1.0000   1.0000   1.0000   1.0000   1.0000
     1.0000   1.0000   1.0000   1.0000   1.0000   1.0000   1.0000   1.0000
     0.0000   0.0000   0.0000   0.0000   0.0000   0.0000   0.0000   0.0000
     0.0000

          k = 0.3333-0.1925 0.3538 (  1594 PWs)   bands (ev):

   -70.3065 -70.3062 -39.1792 -39.1761 -39.0434 -39.0426 -39.0359 -39.0357
    -5.9996  -5.5500   2.6599   3.4416   3.7249   4.0300   4.1400   4.2834
     8.0259   8.1009   8.2768   8.5785   8.7245   9.2157   9.8534   9.8773
     9.9853

     occupation numbers 
     1.0000   1.0000   1.0000   1.0000   1.0000   1.0000   1.0000   1.0000
     1.0000   1.0000   1.0000   1.0000   1.0000   1.0000   1.0000   1.0000
     0.2200   0.0603   0.0004   0.0000   0.0000   0.0000   0.0000   0.0000
     0.0000

          k = 0.3333-0.1925 0.8437 (  1583 PWs)   bands (ev):

   -70.3063 -70.3061 -39.1784 -39.1766 -39.0450 -39.0449 -39.0365 -39.0361
    -5.6560  -5.3992   2.7546   2.8413   3.3546   3.9032   4.1667   4.2154
     7.5217   8.0145   8.4777   8.5045   8.7171   8.7333   9.2174   9.4053
     9.5121

     occupation numbers 
     1.0000   1.0000   1.0000   1.0000   1.0000   1.0000   1.0000   1.0000
     1.0000   1.0000   1.0000   1.0000   1.0000   1.0000   1.0000   1.0000
     1.0000   0.2565   0.0000   0.0000   0.0000   0.0000   0.0000   0.0000
     0.0000

          k = 0.3333-0.1925-1.1159 (  1581 PWs)   bands (ev):

   -70.3062 -70.3061 -39.1776 -39.1774 -39.0454 -39.0445 -39.0366 -39.0360
    -5.5314  -5.5261   2.5667   2.6282   3.7532   4.0119   4.1556   4.2346
     7.5502   8.0901   8.4405   8.6533   8.8666   8.8674   9.1385   9.1997
     9.2831

     occupation numbers 
     1.0000   1.0000   1.0000   1.0000   1.0000   1.0000   1.0000   1.0000
     1.0000   1.0000   1.0000   1.0000   1.0000   1.0000   1.0000   1.0000
     1.0000   0.0750   0.0000   0.0000   0.0000   0.0000   0.0000   0.0000
     0.0000

          k = 0.3333-0.1925-0.6260 (  1602 PWs)   bands (ev):

   -70.3064 -70.3063 -39.1781 -39.1775 -39.0433 -39.0428 -39.0361 -39.0355
    -5.8181  -5.7473   2.8913   3.0030   3.9302   4.0695   4.1704   4.2545
     7.8986   8.1994   8.5380   8.6762   8.9288   8.9884   9.4568   9.4999
     9.8998

     occupation numbers 
     1.0000   1.0000   1.0000   1.0000   1.0000   1.0000   1.0000   1.0000
     1.0000   1.0000   1.0000   1.0000   1.0000   1.0000   1.0000   1.0000
     0.7092   0.0050   0.0000   0.0000   0.0000   0.0000   0.0000   0.0000
     0.0000

          k = 0.3333 0.2694-0.2994 (  1594 PWs)   bands (ev):

   -70.3065 -70.3062 -39.1793 -39.1761 -39.0425 -39.0422 -39.0368 -39.0362
    -5.9995  -5.5497   2.6614   3.4299   3.7176   4.0273   4.1572   4.2960
     8.0116   8.0965   8.2824   8.5794   8.7171   9.2100   9.8613   9.8882
     9.9864

     occupation numbers 
     1.0000   1.0000   1.0000   1.0000   1.0000   1.0000   1.0000   1.0000
     1.0000   1.0000   1.0000   1.0000   1.0000   1.0000   1.0000   1.0000
     0.2663   0.0661   0.0003   0.0000   0.0000   0.0000   0.0000   0.0000
     0.0000

          k = 0.3333 0.2694 0.1905 (  1598 PWs)   bands (ev):

   -70.3065 -70.3062 -39.1798 -39.1757 -39.0427 -39.0419 -39.0368 -39.0362
    -6.0474  -5.4925   2.5442   3.4758   3.7955   4.0473   4.1834   4.2623
     7.8071   8.3318   8.4350   8.4483   8.5413   9.4221   9.4678   9.6221
    10.3277

     occupation numbers 
     1.0000   1.0000   1.0000   1.0000   1.0000   1.0000   1.0000   1.0000
     1.0000   1.0000   1.0000   1.0000   1.0000   1.0000   1.0000   1.0000
     0.9335   0.0000   0.0000   0.0000   0.0000   0.0000   0.0000   0.0000
     0.0000

          k = 0.3333 0.2694 0.6804 (  1583 PWs)   bands (ev):

   -70.3064 -70.3060 -39.1788 -39.1762 -39.0440 -39.0439 -39.0371 -39.0366
    -5.7590  -5.3922   2.9608   2.9834   3.3207   3.8298   4.0941   4.1783
     7.4977   8.1522   8.1726   8.5855   8.7938   8.9306   9.0702   9.4201
     9.6359

     occupation numbers 
     1.0000   1.0000   1.0000   1.0000   1.0000   1.0000   1.0000   1.0000
     1.0000   1.0000   1.0000   1.0000   1.0000   1.0000   1.0000   1.0000
     1.0000   0.0185   0.0108   0.0000   0.0000   0.0000   0.0000   0.0000
     0.0000

          k = 0.3333 0.2694-1.2792 (  1576 PWs)   bands (ev):

   -70.3062 -70.3060 -39.1779 -39.1769 -39.0453 -39.0446 -39.0375 -39.0367
    -5.5085  -5.3844   2.5917   2.6908   3.6611   3.7433   4.0845   4.1524
     7.4830   8.0571   8.3309   8.4191   8.6304   8.6708   9.1223   9.3800
     9.3810

     occupation numbers 
     1.0000   1.0000   1.0000   1.0000   1.0000   1.0000   1.0000   1.0000
     1.0000   1.0000   1.0000   1.0000   1.0000   1.0000   1.0000   1.0000
     1.0000   0.1364   0.0000   0.0000   0.0000   0.0000   0.0000   0.0000
     0.0000

          k = 0.3333 0.2694-0.7893 (  1589 PWs)   bands (ev):

   -70.3063 -70.3061 -39.1783 -39.1769 -39.0442 -39.0437 -39.0371 -39.0366
    -5.6726  -5.4845   2.7465   2.7938   3.6841   4.0011   4.0828   4.1428
     7.7461   7.9661   8.2403   8.6885   8.7955   8.8477   9.0668   9.4104
     9.6832

     occupation numbers 
     1.0000   1.0000   1.0000   1.0000   1.0000   1.0000   1.0000   1.0000
     1.0000   1.0000   1.0000   1.0000   1.0000   1.0000   1.0000   1.0000
     0.9836   0.4401   0.0013   0.0000   0.0000   0.0000   0.0000   0.0000
     0.0000

          k = 0.3333 0.7313-0.4627 (  1583 PWs)   bands (ev):

   -70.3063 -70.3061 -39.1783 -39.1766 -39.0436 -39.0432 -39.0381 -39.0378
    -5.6554  -5.3988   2.7457   2.8341   3.3556   3.9061   4.1847   4.2304
     7.5077   8.0038   8.4706   8.5095   8.7177   8.7266   9.2176   9.4067
     9.5104

     occupation numbers 
     1.0000   1.0000   1.0000   1.0000   1.0000   1.0000   1.0000   1.0000
     1.0000   1.0000   1.0000   1.0000   1.0000   1.0000   1.0000   1.0000
     1.0000   0.2938   0.0000   0.0000   0.0000   0.0000   0.0000   0.0000
     0.0000

          k = 0.3333 0.7313 0.0272 (  1583 PWs)   bands (ev):

   -70.3064 -70.3060 -39.1787 -39.1763 -39.0431 -39.0425 -39.0381 -39.0380
    -5.7585  -5.3921   2.9573   2.9738   3.3163   3.8449   4.1040   4.1830
     7.4890   8.1479   8.1828   8.5833   8.7934   8.9196   9.0647   9.4186
     9.6393

     occupation numbers 
     1.0000   1.0000   1.0000   1.0000   1.0000   1.0000   1.0000   1.0000
     1.0000   1.0000   1.0000   1.0000   1.0000   1.0000   1.0000   1.0000
     1.0000   0.0207   0.0081   0.0000   0.0000   0.0000   0.0000   0.0000
     0.0000

          k = 0.3333 0.7313 0.5171 (  1587 PWs)   bands (ev):

   -70.3063 -70.3061 -39.1782 -39.1770 -39.0434 -39.0434 -39.0380 -39.0378
    -5.6147  -5.4426   2.7690   2.8213   3.3670   3.8766   4.1731   4.2451
     7.6700   7.7864   8.4644   8.5768   8.7619   8.7658   9.2241   9.3400
     9.5663

     occupation numbers 
     1.0000   1.0000   1.0000   1.0000   1.0000   1.0000   1.0000   1.0000
     1.0000   1.0000   1.0000   1.0000   1.0000   1.0000   1.0000   1.0000
     0.9983   0.9570   0.0000   0.0000   0.0000   0.0000   0.0000   0.0000
     0.0000

          k = 0.3333 0.7313-1.4425 (  1573 PWs)   bands (ev):

   -70.3061 -70.3060 -39.1775 -39.1773 -39.0442 -39.0434 -39.0384 -39.0380
    -5.4813  -5.4142   2.7807   2.8159   3.4961   3.5425   4.0505   4.1723
     7.5782   7.9021   8.2100   8.2917   8.7347   8.8233   9.0707   9.2412
     9.5833

     occupation numbers 
     1.0000   1.0000   1.0000   1.0000   1.0000   1.0000   1.0000   1.0000
     1.0000   1.0000   1.0000   1.0000   1.0000   1.0000   1.0000   1.0000
     0.9999   0.6965   0.0036   0.0002   0.0000   0.0000   0.0000   0.0000
     0.0000

          k = 0.3333 0.7313-0.9526 (  1579 PWs)   bands (ev):

   -70.3061 -70.3061 -39.1775 -39.1774 -39.0442 -39.0436 -39.0384 -39.0380
    -5.4553  -5.4416   2.8988   2.9035   3.3905   3.4020   4.1001   4.1283
     7.6966   7.7668   8.1971   8.2016   8.7928   8.8080   9.1090   9.1533
     9.6571

     occupation numbers 
     1.0000   1.0000   1.0000   1.0000   1.0000   1.0000   1.0000   1.0000
     1.0000   1.0000   1.0000   1.0000   1.0000   1.0000   1.0000   1.0000
     0.9960   0.9726   0.0054   0.0047   0.0000   0.0000   0.0000   0.0000
     0.0000

          k = 0.3333-1.1162 0.1905 (  1581 PWs)   bands (ev):

   -70.3062 -70.3061 -39.1775 -39.1775 -39.0435 -39.0433 -39.0379 -39.0378
    -5.5305  -5.5260   2.5624   2.6193   3.7560   4.0093   4.1713   4.2520
     7.5405   8.0696   8.4424   8.6482   8.8632   8.8703   9.1399   9.2092
     9.2699

     occupation numbers 
     1.0000   1.0000   1.0000   1.0000   1.0000   1.0000   1.0000   1.0000
     1.0000   1.0000   1.0000   1.0000   1.0000   1.0000   1.0000   1.0000
     1.0000   0.1101   0.0000   0.0000   0.0000   0.0000   0.0000   0.0000
     0.0000

          k = 0.3333-1.1162 0.6804 (  1576 PWs)   bands (ev):

   -70.3062 -70.3060 -39.1777 -39.1771 -39.0442 -39.0435 -39.0383 -39.0381
    -5.5076  -5.3846   2.5875   2.6820   3.6675   3.7560   4.0837   4.1576
     7.4779   8.0477   8.3431   8.4123   8.6255   8.6748   9.1197   9.3781
     9.3883

     occupation numbers 
     1.0000   1.0000   1.0000   1.0000   1.0000   1.0000   1.0000   1.0000
     1.0000   1.0000   1.0000   1.0000   1.0000   1.0000   1.0000   1.0000
     1.0000   0.1590   0.0000   0.0000   0.0000   0.0000   0.0000   0.0000
     0.0000

          k = 0.3333-1.1162 1.1703 (  1573 PWs)   bands (ev):

   -70.3061 -70.3060 -39.1776 -39.1772 -39.0440 -39.0437 -39.0383 -39.0380
    -5.4816  -5.4139   2.7802   2.8134   3.4923   3.5545   4.0455   4.1719
     7.5788   7.9036   8.1963   8.2993   8.7349   8.8233   9.0771   9.2413
     9.5777

     occupation numbers 
     1.0000   1.0000   1.0000   1.0000   1.0000   1.0000   1.0000   1.0000
     1.0000   1.0000   1.0000   1.0000   1.0000   1.0000   1.0000   1.0000
     0.9999   0.6910   0.0055   0.0002   0.0000   0.0000   0.0000   0.0000
     0.0000

          k = 0.3333-1.1162-0.7893 (  1577 PWs)   bands (ev):

   -70.3062 -70.3060 -39.1784 -39.1765 -39.0437 -39.0431 -39.0380 -39.0377
    -5.6733  -5.3756   2.5702   2.5835   3.7342   4.0773   4.2067   4.2125
     7.4002   8.3127   8.3682   8.6119   8.6585   8.6736   9.1678   9.2077
     9.7416

     occupation numbers 
     1.0000   1.0000   1.0000   1.0000   1.0000   1.0000   1.0000   1.0000
     1.0000   1.0000   1.0000   1.0000   1.0000   1.0000   1.0000   1.0000
     1.0000   0.0001   0.0000   0.0000   0.0000   0.0000   0.0000   0.0000
     0.0000

          k = 0.3333-1.1162-0.2994 (  1580 PWs)   bands (ev):

   -70.3063 -70.3061 -39.1783 -39.1767 -39.0430 -39.0425 -39.0380 -39.0380
    -5.7024  -5.4521   2.7799   2.8384   3.5903   3.9847   4.1146   4.1378
     7.6690   8.0304   8.1983   8.6634   8.8524   8.8564   9.0475   9.4430
     9.6704

     occupation numbers 
     1.0000   1.0000   1.0000   1.0000   1.0000   1.0000   1.0000   1.0000
     1.0000   1.0000   1.0000   1.0000   1.0000   1.0000   1.0000   1.0000
     0.9983   0.2065   0.0052   0.0000   0.0000   0.0000   0.0000   0.0000
     0.0000

          k = 0.3333-0.6543 0.0272 (  1602 PWs)   bands (ev):

   -70.3064 -70.3063 -39.1779 -39.1776 -39.0426 -39.0421 -39.0366 -39.0365
    -5.8176  -5.7474   2.8858   3.0022   3.9247   4.0601   4.1844   4.2707
     7.8929   8.2006   8.5301   8.6795   8.9395   8.9693   9.4524   9.5063
     9.8936

     occupation numbers 
     1.0000   1.0000   1.0000   1.0000   1.0000   1.0000   1.0000   1.0000
     1.0000   1.0000   1.0000   1.0000   1.0000   1.0000   1.0000   1.0000
     0.7291   0.0048   0.0000   0.0000   0.0000   0.0000   0.0000   0.0000
     0.0000

          k = 0.3333-0.6543 0.5171 (  1589 PWs)   bands (ev):

   -70.3063 -70.3061 -39.1781 -39.1771 -39.0443 -39.0438 -39.0369 -39.0368
    -5.6721  -5.4850   2.7415   2.7956   3.6896   4.0064   4.0831   4.1344
     7.7479   7.9673   8.2517   8.6844   8.7869   8.8492   9.0758   9.3927
     9.6819

     occupation numbers 
     1.0000   1.0000   1.0000   1.0000   1.0000   1.0000   1.0000   1.0000
     1.0000   1.0000   1.0000   1.0000   1.0000   1.0000   1.0000   1.0000
     0.9829   0.4350   0.0009   0.0000   0.0000   0.0000   0.0000   0.0000
     0.0000

          k = 0.3333-0.6543 1.0070 (  1579 PWs)   bands (ev):

   -70.3061 -70.3061 -39.1775 -39.1774 -39.0450 -39.0449 -39.0372 -39.0370
    -5.4559  -5.4417   2.9081   2.9104   3.3791   3.4011   4.0917   4.1211
     7.7064   7.7779   8.1880   8.2055   8.7919   8.8071   9.1124   9.1551
     9.6569

     occupation numbers 
     1.0000   1.0000   1.0000   1.0000   1.0000   1.0000   1.0000   1.0000
     1.0000   1.0000   1.0000   1.0000   1.0000   1.0000   1.0000   1.0000
     0.9946   0.9645   0.0070   0.0042   0.0000   0.0000   0.0000   0.0000
     0.0000

          k = 0.3333-0.6543-0.9526 (  1580 PWs)   bands (ev):

   -70.3063 -70.3061 -39.1783 -39.1767 -39.0442 -39.0437 -39.0368 -39.0368
    -5.7026  -5.4524   2.7813   2.8461   3.5951   3.9750   4.1115   4.1245
     7.6799   8.0353   8.1962   8.6643   8.8547   8.8615   9.0543   9.4367
     9.6672

     occupation numbers 
     1.0000   1.0000   1.0000   1.0000   1.0000   1.0000   1.0000   1.0000
     1.0000   1.0000   1.0000   1.0000   1.0000   1.0000   1.0000   1.0000
     0.9976   0.1920   0.0055   0.0000   0.0000   0.0000   0.0000   0.0000
     0.0000

          k = 0.3333-0.6543-0.4627 (  1599 PWs)   bands (ev):

   -70.3064 -70.3063 -39.1783 -39.1771 -39.0427 -39.0421 -39.0366 -39.0364
    -5.8735  -5.6889   2.7879   3.0846   3.9751   4.0296   4.1962   4.2578
     7.8857   8.2354   8.5353   8.6986   8.7307   9.1726   9.4373   9.5518
     9.8126

     occupation numbers 
     1.0000   1.0000   1.0000   1.0000   1.0000   1.0000   1.0000   1.0000
     1.0000   1.0000   1.0000   1.0000   1.0000   1.0000   1.0000   1.0000
     0.7534   0.0016   0.0000   0.0000   0.0000   0.0000   0.0000   0.0000
     0.0000

     the Fermi energy is     7.9516 ev

!    total energy              =    -705.47513114 Ry
     total all-electron energy =     -6231.191938 Ry
     estimated scf accuracy    <          6.8E-11 Ry
     smearing contrib. (-TS)   =      -0.00191264 Ry
     internal energy E=F+TS    =    -705.47321850 Ry

     The total energy is F=E-TS. E is the sum of the following terms:
     one-electron contribution =    -304.53230691 Ry
     hartree contribution      =     169.01251467 Ry
     xc contribution           =     -65.96288799 Ry
     ewald contribution        =    -256.50042837 Ry
     one-center paw contrib.   =    -247.49010990 Ry
      -> PAW hartree energy AE =     175.43078352 Ry
      -> PAW hartree energy PS =    -176.38535778 Ry
      -> PAW xc energy AE      =    -104.43818123 Ry
      -> PAW xc energy PS      =      27.77803104 Ry
      -> total E_H with PAW    =     168.05794042 Ry
      -> total E_XC with PAW   =    -142.62303819 Ry

     total magnetization       =     7.81 Bohr mag/cell
     absolute magnetization    =     7.90 Bohr mag/cell

     convergence has been achieved in  23 iterations

     Forces acting on atoms (cartesian axes, Ry/au):

     atom    1 type  1   force =    -0.00076660    0.00044259    0.00007295
     atom    2 type  2   force =    -0.00075943    0.00043845    0.00006978
     atom    3 type  3   force =     0.00076173   -0.00043979   -0.00007082
     atom    4 type  3   force =     0.00076429   -0.00044126   -0.00007191
     The non-local contrib.  to forces
     atom    1 type  1   force =    -0.01663428    0.00960380    0.00558496
     atom    2 type  2   force =    -0.01663108    0.00960196    0.00558347
     atom    3 type  3   force =     0.00080925   -0.00046722    0.00069582
     atom    4 type  3   force =     0.00081172   -0.00046865    0.00069474
     The ionic contribution  to forces
     atom    1 type  1   force =     0.13122545   -0.07576269   -0.07881429
     atom    2 type  2   force =     0.13118077   -0.07574040   -0.07880025
     atom    3 type  3   force =    -0.13121597    0.07576062    0.07881475
     atom    4 type  3   force =    -0.13119024    0.07574247    0.07879978
     The local contribution  to forces
     atom    1 type  1   force =    -0.11758839    0.06793569    0.07405498
     atom    2 type  2   force =    -0.11759754    0.06785022    0.07404630
     atom    3 type  3   force =     0.13092344   -0.07558946   -0.07941168
     atom    4 type  3   force =     0.13090325   -0.07557913   -0.07939976
     The core correction contribution to forces
     atom    1 type  1   force =     0.00215014   -0.00124093   -0.00068885
     atom    2 type  2   force =     0.00214963   -0.00124155   -0.00068882
     atom    3 type  3   force =     0.00012297   -0.00007100   -0.00010494
     atom    4 type  3   force =     0.00012293   -0.00007096   -0.00010492
     The Hubbard contrib.    to forces
     atom    1 type  1   force =     0.00000000    0.00000000    0.00000000
     atom    2 type  2   force =     0.00000000    0.00000000    0.00000000
     atom    3 type  3   force =     0.00000000    0.00000000    0.00000000
     atom    4 type  3   force =     0.00000000    0.00000000    0.00000000
     The SCF correction term to forces
     atom    1 type  1   force =    -0.00001757    0.00001015   -0.00000008
     atom    2 type  2   force =    -0.00000047    0.00000027   -0.00000715
     atom    3 type  3   force =     0.00000470   -0.00000271   -0.00000101
     atom    4 type  3   force =    -0.00000271    0.00000156    0.00000201

     Total force =     0.001768     Total SCF correction =     0.000023


     Computing stress (Cartesian axis) and pressure

          total   stress  (Ry/bohr**3)                   (kbar)     P=     -421.59
  -0.00289573   0.00003732   0.00004298         -425.98        5.49        6.32
   0.00003732  -0.00285264  -0.00002482            5.49     -419.64       -3.65
[...]

     iteration # 79     ecut=    30.00 Ry     beta= 0.70
     Davidson diagonalization with overlap

---- Real-time Memory Report at c_bands before calling an iterative solver
            77 MiB given to the printing process from OS
             0 MiB allocation reported by mallinfo(arena+hblkhd)
          1689 MiB available memory on the node where the printing process lives
------------------
     ethr =  1.69E-07,  avg # of iterations =  1.5

     total cpu time spent up to now is      533.8 secs

     total energy              =    -705.68872315 Ry
     estimated scf accuracy    <       0.00005810 Ry

     total magnetization       =     0.37 Bohr mag/cell
     absolute magnetization    =     0.40 Bohr mag/cell

     iteration # 80     ecut=    30.00 Ry     beta= 0.70
     Davidson diagonalization with overlap

---- Real-time Memory Report at c_bands before calling an iterative solver
            77 MiB given to the printing process from OS
             0 MiB allocation reported by mallinfo(arena+hblkhd)
          1686 MiB available memory on the node where the printing process lives
------------------
     ethr =  1.38E-07,  avg # of iterations =  1.5

     total cpu time spent up to now is      536.1 secs

     total energy              =    -705.68873200 Ry
     estimated scf accuracy    <       0.00002162 Ry

     total magnetization       =     0.37 Bohr mag/cell
     absolute magnetization    =     0.40 Bohr mag/cell

     iteration # 81     ecut=    30.00 Ry     beta= 0.70
     Davidson diagonalization with overlap

---- Real-time Memory Report at c_bands before calling an iterative solver
            77 MiB given to the printing process from OS
             0 MiB allocation reported by mallinfo(arena+hblkhd)
          1702 MiB available memory on the node where the printing process lives
------------------
     ethr =  5.15E-08,  avg # of iterations =  3.7

     total cpu time spent up to now is      538.8 secs

     total energy              =    -705.68873555 Ry
     estimated scf accuracy    <       0.00001893 Ry

     total magnetization       =     0.37 Bohr mag/cell
     absolute magnetization    =     0.40 Bohr mag/cell

     iteration # 82     ecut=    30.00 Ry     beta= 0.70
     Davidson diagonalization with overlap

---- Real-time Memory Report at c_bands before calling an iterative solver
            77 MiB given to the printing process from OS
             0 MiB allocation reported by mallinfo(arena+hblkhd)
          1686 MiB available memory on the node where the printing process lives
------------------
     ethr =  4.51E-08,  avg # of iterations =  5.0

     total cpu time spent up to now is      541.9 secs

     total energy              =    -705.68874395 Ry
     estimated scf accuracy    <       0.00001035 Ry

     total magnetization       =     0.36 Bohr mag/cell
     absolute magnetization    =     0.40 Bohr mag/cell

     iteration # 83     ecut=    30.00 Ry     beta= 0.70
     Davidson diagonalization with overlap

---- Real-time Memory Report at c_bands before calling an iterative solver
            77 MiB given to the printing process from OS
             0 MiB allocation reported by mallinfo(arena+hblkhd)
          1690 MiB available memory on the node where the printing process lives
------------------
     ethr =  2.46E-08,  avg # of iterations =  5.5

     total cpu time spent up to now is      545.5 secs

     total energy              =    -705.68876504 Ry
     estimated scf accuracy    <       0.00000724 Ry

     total magnetization       =     0.35 Bohr mag/cell
     absolute magnetization    =     0.39 Bohr mag/cell

     iteration # 84     ecut=    30.00 Ry     beta= 0.70
     Davidson diagonalization with overlap

---- Real-time Memory Report at c_bands before calling an iterative solver
            77 MiB given to the printing process from OS
             0 MiB allocation reported by mallinfo(arena+hblkhd)
          1707 MiB available memory on the node where the printing process lives
------------------
     ethr =  1.72E-08,  avg # of iterations =  3.0

     total cpu time spent up to now is      548.2 secs

     total energy              =    -705.68876886 Ry
     estimated scf accuracy    <       0.00000246 Ry

     total magnetization       =     0.33 Bohr mag/cell
     absolute magnetization    =     0.37 Bohr mag/cell

     iteration # 85     ecut=    30.00 Ry     beta= 0.70
     Davidson diagonalization with overlap

---- Real-time Memory Report at c_bands before calling an iterative solver
            77 MiB given to the printing process from OS
             0 MiB allocation reported by mallinfo(arena+hblkhd)
          1709 MiB available memory on the node where the printing process lives
------------------
     ethr =  5.86E-09,  avg # of iterations =  4.8

     total cpu time spent up to now is      551.3 secs

     total energy              =    -705.68877064 Ry
     estimated scf accuracy    <       0.00000430 Ry

     total magnetization       =     0.33 Bohr mag/cell
     absolute magnetization    =     0.36 Bohr mag/cell

     iteration # 86     ecut=    30.00 Ry     beta= 0.70
     Davidson diagonalization with overlap

---- Real-time Memory Report at c_bands before calling an iterative solver
            77 MiB given to the printing process from OS
             0 MiB allocation reported by mallinfo(arena+hblkhd)
          1705 MiB available memory on the node where the printing process lives
------------------
     ethr =  5.86E-09,  avg # of iterations =  1.0

     total cpu time spent up to now is      553.5 secs

     total energy              =    -705.68877116 Ry
     estimated scf accuracy    <       0.00000597 Ry

     total magnetization       =     0.33 Bohr mag/cell
     absolute magnetization    =     0.36 Bohr mag/cell

     iteration # 87     ecut=    30.00 Ry     beta= 0.70
     Davidson diagonalization with overlap

---- Real-time Memory Report at c_bands before calling an iterative solver
            77 MiB given to the printing process from OS
             0 MiB allocation reported by mallinfo(arena+hblkhd)
          1709 MiB available memory on the node where the printing process lives
------------------
     ethr =  5.86E-09,  avg # of iterations =  1.0

     total cpu time spent up to now is      555.7 secs

     total energy              =    -705.68877240 Ry
     estimated scf accuracy    <       0.00000529 Ry

     total magnetization       =     0.33 Bohr mag/cell
     absolute magnetization    =     0.36 Bohr mag/cell

     iteration # 88     ecut=    30.00 Ry     beta= 0.70
     Davidson diagonalization with overlap

---- Real-time Memory Report at c_bands before calling an iterative solver
            77 MiB given to the printing process from OS
             0 MiB allocation reported by mallinfo(arena+hblkhd)
          1711 MiB available memory on the node where the printing process lives
------------------
     ethr =  5.86E-09,  avg # of iterations =  3.0

     total cpu time spent up to now is      558.3 secs

     total energy              =    -705.68876906 Ry
     estimated scf accuracy    <       0.00000435 Ry

     total magnetization       =     0.33 Bohr mag/cell
     absolute magnetization    =     0.36 Bohr mag/cell

     iteration # 89     ecut=    30.00 Ry     beta= 0.70
     Davidson diagonalization with overlap

---- Real-time Memory Report at c_bands before calling an iterative solver
            77 MiB given to the printing process from OS
             0 MiB allocation reported by mallinfo(arena+hblkhd)
          1714 MiB available memory on the node where the printing process lives
------------------
     ethr =  5.86E-09,  avg # of iterations =  2.4

     total cpu time spent up to now is      560.8 secs

     total energy              =    -705.68877029 Ry
     estimated scf accuracy    <       0.00000486 Ry

     total magnetization       =     0.33 Bohr mag/cell
     absolute magnetization    =     0.36 Bohr mag/cell

     iteration # 90     ecut=    30.00 Ry     beta= 0.70
     Davidson diagonalization with overlap

---- Real-time Memory Report at c_bands before calling an iterative solver
            77 MiB given to the printing process from OS
             0 MiB allocation reported by mallinfo(arena+hblkhd)
          1711 MiB available memory on the node where the printing process lives
------------------
     ethr =  5.86E-09,  avg # of iterations =  1.0

     total cpu time spent up to now is      563.0 secs

     total energy              =    -705.68877162 Ry
     estimated scf accuracy    <       0.00000641 Ry

     total magnetization       =     0.33 Bohr mag/cell
     absolute magnetization    =     0.36 Bohr mag/cell

     iteration # 91     ecut=    30.00 Ry     beta= 0.70
     Davidson diagonalization with overlap

---- Real-time Memory Report at c_bands before calling an iterative solver
            77 MiB given to the printing process from OS
             0 MiB allocation reported by mallinfo(arena+hblkhd)
          1706 MiB available memory on the node where the printing process lives
------------------
     ethr =  5.86E-09,  avg # of iterations =  2.2

     total cpu time spent up to now is      565.4 secs

     total energy              =    -705.68877370 Ry
     estimated scf accuracy    <       0.00000377 Ry

     total magnetization       =     0.33 Bohr mag/cell
     absolute magnetization    =     0.36 Bohr mag/cell

     iteration # 92     ecut=    30.00 Ry     beta= 0.70
     Davidson diagonalization with overlap

---- Real-time Memory Report at c_bands before calling an iterative solver
            77 MiB given to the printing process from OS
             0 MiB allocation reported by mallinfo(arena+hblkhd)
          1720 MiB available memory on the node where the printing process lives
------------------
     ethr =  5.86E-09,  avg # of iterations =  3.4

     total cpu time spent up to now is      568.1 secs

     total energy              =    -705.68876589 Ry
     estimated scf accuracy    <       0.00000339 Ry

     total magnetization       =     0.33 Bohr mag/cell
     absolute magnetization    =     0.36 Bohr mag/cell

     iteration # 93     ecut=    30.00 Ry     beta= 0.70
     Davidson diagonalization with overlap

---- Real-time Memory Report at c_bands before calling an iterative solver
            77 MiB given to the printing process from OS
             0 MiB allocation reported by mallinfo(arena+hblkhd)
          1693 MiB available memory on the node where the printing process lives
------------------
     ethr =  5.86E-09,  avg # of iterations =  4.8

     total cpu time spent up to now is      571.2 secs

     total energy              =    -705.68874277 Ry
     estimated scf accuracy    <       0.00000442 Ry

     total magnetization       =     0.33 Bohr mag/cell
     absolute magnetization    =     0.36 Bohr mag/cell

     iteration # 94     ecut=    30.00 Ry     beta= 0.70
     Davidson diagonalization with overlap

---- Real-time Memory Report at c_bands before calling an iterative solver
            77 MiB given to the printing process from OS
             0 MiB allocation reported by mallinfo(arena+hblkhd)
          1708 MiB available memory on the node where the printing process lives
------------------
     ethr =  5.86E-09,  avg # of iterations =  7.4

     total cpu time spent up to now is      575.2 secs

     total energy              =    -705.68873979 Ry
     estimated scf accuracy    <       0.00000157 Ry

     total magnetization       =     0.33 Bohr mag/cell
     absolute magnetization    =     0.36 Bohr mag/cell

     iteration # 95     ecut=    30.00 Ry     beta= 0.70
     Davidson diagonalization with overlap

---- Real-time Memory Report at c_bands before calling an iterative solver
            77 MiB given to the printing process from OS
             0 MiB allocation reported by mallinfo(arena+hblkhd)
          1698 MiB available memory on the node where the printing process lives
------------------
     ethr =  3.74E-09,  avg # of iterations =  8.3

     total cpu time spent up to now is      579.4 secs

     total energy              =    -705.68873155 Ry
     estimated scf accuracy    <       0.00000078 Ry

     total magnetization       =     0.33 Bohr mag/cell
     absolute magnetization    =     0.36 Bohr mag/cell

     iteration # 96     ecut=    30.00 Ry     beta= 0.70
     Davidson diagonalization with overlap

---- Real-time Memory Report at c_bands before calling an iterative solver
            77 MiB given to the printing process from OS
             0 MiB allocation reported by mallinfo(arena+hblkhd)
          1700 MiB available memory on the node where the printing process lives
------------------
     ethr =  1.86E-09,  avg # of iterations =  9.5

     total cpu time spent up to now is      584.3 secs

     total energy              =    -705.68875084 Ry
     estimated scf accuracy    <       0.00000018 Ry

     total magnetization       =     0.33 Bohr mag/cell
     absolute magnetization    =     0.36 Bohr mag/cell

     iteration # 97     ecut=    30.00 Ry     beta= 0.70
     Davidson diagonalization with overlap

---- Real-time Memory Report at c_bands before calling an iterative solver
            77 MiB given to the printing process from OS
             0 MiB allocation reported by mallinfo(arena+hblkhd)
          1676 MiB available memory on the node where the printing process lives
------------------
     ethr =  4.38E-10,  avg # of iterations =  9.0

     total cpu time spent up to now is      589.2 secs

     total energy              =    -705.68875407 Ry
     estimated scf accuracy    <       0.00000007 Ry

     total magnetization       =     0.33 Bohr mag/cell
     absolute magnetization    =     0.36 Bohr mag/cell

     iteration # 98     ecut=    30.00 Ry     beta= 0.70
     Davidson diagonalization with overlap

---- Real-time Memory Report at c_bands before calling an iterative solver
            77 MiB given to the printing process from OS
             0 MiB allocation reported by mallinfo(arena+hblkhd)
          1691 MiB available memory on the node where the printing process lives
------------------
     ethr =  1.71E-10,  avg # of iterations =  6.1

     total cpu time spent up to now is      593.3 secs

     total energy              =    -705.68875419 Ry
     estimated scf accuracy    <       0.00000002 Ry

     total magnetization       =     0.33 Bohr mag/cell
     absolute magnetization    =     0.36 Bohr mag/cell

     iteration # 99     ecut=    30.00 Ry     beta= 0.70
     Davidson diagonalization with overlap

---- Real-time Memory Report at c_bands before calling an iterative solver
            77 MiB given to the printing process from OS
             0 MiB allocation reported by mallinfo(arena+hblkhd)
          1690 MiB available memory on the node where the printing process lives
------------------
     ethr =  4.64E-11,  avg # of iterations =  7.6

     total cpu time spent up to now is      597.8 secs

     total energy              =    -705.68875443 Ry
     estimated scf accuracy    <          4.6E-09 Ry

     total magnetization       =     0.33 Bohr mag/cell
     absolute magnetization    =     0.36 Bohr mag/cell

     iteration #100     ecut=    30.00 Ry     beta= 0.70
     Davidson diagonalization with overlap

---- Real-time Memory Report at c_bands before calling an iterative solver
            77 MiB given to the printing process from OS
             0 MiB allocation reported by mallinfo(arena+hblkhd)
          1699 MiB available memory on the node where the printing process lives
------------------
     ethr =  1.09E-11,  avg # of iterations =  6.9

     total cpu time spent up to now is      602.0 secs

     total energy              =    -705.68875445 Ry
     estimated scf accuracy    <       0.00000003 Ry

     total magnetization       =     0.33 Bohr mag/cell
     absolute magnetization    =     0.36 Bohr mag/cell

     End of self-consistent calculation

     convergence NOT achieved after 100 iterations: stopping

     Writing config to output data dir ./temp/mns.save/ :
     XML data file, charge density

     init_run     :      2.17s CPU      2.24s WALL (       1 calls)
     electrons    :    579.02s CPU    590.41s WALL (       4 calls)
     update_pot   :      0.93s CPU      0.98s WALL (       3 calls)
     forces       :      1.56s CPU      1.57s WALL (       3 calls)
     stress       :      4.85s CPU      4.87s WALL (       3 calls)

     Called by init_run:
     wfcinit      :      0.94s CPU      0.96s WALL (       1 calls)
     wfcinit:atom :      0.01s CPU      0.01s WALL (      76 calls)
     wfcinit:wfcr :      0.88s CPU      0.90s WALL (      76 calls)
     potinit      :      0.58s CPU      0.61s WALL (       1 calls)
     hinit0       :      0.55s CPU      0.56s WALL (       1 calls)

     Called by electrons:
     c_bands      :    462.49s CPU    469.22s WALL (     165 calls)
     sum_band     :     55.43s CPU     56.35s WALL (     165 calls)
     v_of_rho     :      1.97s CPU      2.02s WALL (     168 calls)
     v_h          :      0.06s CPU      0.06s WALL (     168 calls)
     v_xc         :      1.98s CPU      2.03s WALL (     174 calls)
     newd         :     11.04s CPU     11.36s WALL (     168 calls)
     PAW_pot      :     49.64s CPU     53.13s WALL (     171 calls)
     mix_rho      :      0.61s CPU      0.62s WALL (     165 calls)

     Called by c_bands:
     init_us_2    :      5.14s CPU      5.20s WALL (   25840 calls)
     cegterg      :    449.87s CPU    456.45s WALL (   12540 calls)

     Called by sum_band:
     sum_band:wei :      0.17s CPU      0.17s WALL (     165 calls)
     sum_band:loo :     36.75s CPU     37.62s WALL (     165 calls)
     sum_band:buf :      0.77s CPU      0.78s WALL (   12540 calls)
     sum_band:ini :      2.01s CPU      2.03s WALL (   12540 calls)
     sum_band:cal :     13.67s CPU     14.07s WALL (   12768 calls)
     sum_band:bec :      0.79s CPU      0.80s WALL (   12768 calls)
     addusdens    :     18.06s CPU     18.09s WALL (     165 calls)
                                        0.00s GPU  (     165 calls)
     addusd:skk   :      0.04s CPU      0.04s WALL (     495 calls)
                                        0.00s GPU  (     495 calls)

     Called by *egterg:
     cdiaghg      :     63.22s CPU     63.65s WALL (   73628 calls)
     cegterg:over :     41.78s CPU     42.57s WALL (   61392 calls)
     cegterg:upda :     20.82s CPU     20.91s WALL (   61392 calls)
     cegterg:last :     50.01s CPU     50.10s WALL (   34008 calls)
     h_psi        :    214.19s CPU    219.03s WALL (   74008 calls)
     s_psi        :     40.62s CPU     40.83s WALL (   74008 calls)
     g_psi        :      0.75s CPU      0.75s WALL (   61392 calls)

     Called by h_psi:
     h_psi:calbec :     47.37s CPU     48.99s WALL (   74008 calls)
     vloc_psi     :    123.76s CPU    126.72s WALL (   74008 calls)
     add_vuspsi   :     41.04s CPU     41.31s WALL (   74008 calls)

     General routines
     calbec       :     62.19s CPU     64.26s WALL (   87916 calls)
     fft          :      0.84s CPU      0.87s WALL (    4317 calls)
     ffts         :      0.15s CPU      0.16s WALL (     666 calls)
     fftw         :    123.76s CPU    126.75s WALL ( 2288450 calls)
     interpolate  :      0.21s CPU      0.23s WALL (     336 calls)
     davcio       :      0.00s CPU      0.01s WALL (      94 calls)

     Parallel routines

     PAW routines
     PAW_pot      :     49.64s CPU     53.13s WALL (     171 calls)
     PAW_symme    :      0.02s CPU      0.02s WALL (     336 calls)

     PWSCF        :   9m50.43s CPU  10m 2.07s WALL


   This run was terminated on:  17:36:48  31Jan2025            

=------------------------------------------------------------------------------=
   JOB DONE.
=------------------------------------------------------------------------------=
