 INFO
nunit      1    1    1
unit   cell
celltype   primcell
shape   parapipedal
 END_INFO
 DIM-GROUP
           3           1
 PRIMVEC
    6.9966875560   -0.0055128250   -0.0313393710
    3.4935708490    6.0620378980   -0.0313324280
    1.7356202450    1.0020630690    2.8093644510
 CONVVEC
    6.9966875560   -0.0055128250   -0.0313393710
    3.4935708490    6.0620378980   -0.0313324280
    1.7356202450    1.0020630690    2.8093644510
 PRIMCOORD
           8           1
 25      5.2306226200     3.0190160480     2.0960067200    -0.0003908700     0.0000622000     0.0002006900
 25      6.9765439820     6.0515940270     2.0806830920    -0.0000346300    -0.0000283500     0.0001262600
 25      8.7281080590     3.0154514230     2.0815433700     0.0001881700     0.0001194400    -0.0000637300
 25     10.4764041860     6.0494286160     2.0635292290    -0.0001267900    -0.0003648800     0.0001687700
 16      1.7393776110     1.0030426570     2.7981210690     0.0003546500     0.0003012500    -0.0003646900
 16      3.4893598620     4.0380852260     2.7795936040    -0.0002484500    -0.0001580800     0.0001961100
 16      5.2408585130     1.0023040790     2.7802989730    -0.0001566200    -0.0000736000     0.0001012100
 16      6.9839714980     4.0333569510     2.7664238030     0.0004145400     0.0001420100    -0.0003646200
 CONVCOORD
           8           1
 25      5.2306226200     3.0190160480     2.0960067200
 25      6.9765439820     6.0515940270     2.0806830920
 25      8.7281080590     3.0154514230     2.0815433700
 25     10.4764041860     6.0494286160     2.0635292290
 16      1.7393776110     1.0030426570     2.7981210690
 16      3.4893598620     4.0380852260     2.7795936040
 16      5.2408585130     1.0023040790     2.7802989730
 16      6.9839714980     4.0333569510     2.7664238030
 RECIP-PRIMVEC
    0.1425969673   -0.0824823387   -0.0586757898

   -0.0001330243    0.1647344132   -0.0586763999

    0.0015892318    0.0009171414    0.3546434366

 RECIP-CONVVEC
    0.1425969673   -0.0824823387   -0.0586757898

   -0.0001330243    0.1647344132   -0.0586763999

    0.0015892318    0.0009171414    0.3546434366

 WIGNER-SEITZ-PRIMCELL
           4
  0.1744158E+01 -0.3038045E+01 -0.2113432E+01   0.5067961E+00 -0.2888931E+00 -0.8122183E+00
  0.1740893E+01  0.1005084E+01 -0.3553546E+01   0.5067961E+00 -0.2888931E+00 -0.8122183E+00
  0.1781289E+01  0.1028406E+01 -0.3536636E+01   0.5067961E+00 -0.2888931E+00 -0.8122183E+00
  0.1784554E+01 -0.3014723E+01 -0.2096522E+01   0.5067961E+00 -0.2888931E+00 -0.8122183E+00
           6
 -0.3476514E+01 -0.2007147E+01  0.7441815E+00  -0.5029402E+00 -0.2903733E+00 -0.8140850E+00
 -0.3479778E+01  0.2035982E+01 -0.6959322E+00  -0.5029402E+00 -0.2903733E+00 -0.8140850E+00
 -0.1758960E+01  0.3029503E+01 -0.2113427E+01  -0.5029402E+00 -0.2903733E+00 -0.8140850E+00
  0.1740893E+01  0.1005084E+01 -0.3553546E+01  -0.5029402E+00 -0.2903733E+00 -0.8140850E+00
  0.1744158E+01 -0.3038045E+01 -0.2113432E+01  -0.5029402E+00 -0.2903733E+00 -0.8140850E+00
  0.2333935E-01 -0.4031566E+01 -0.6959377E+00  -0.5029402E+00 -0.2903733E+00 -0.8140850E+00
           6
  0.1781290E+01  0.1028408E+01 -0.3536635E+01   0.3210085E-02  0.5833420E+00 -0.8122203E+00
  0.1781289E+01  0.1028406E+01 -0.3536636E+01   0.3210085E-02  0.5833420E+00 -0.8122203E+00
  0.1740893E+01  0.1005084E+01 -0.3553546E+01   0.3210085E-02  0.5833420E+00 -0.8122203E+00
 -0.1758960E+01  0.3029503E+01 -0.2113427E+01   0.3210085E-02  0.5833420E+00 -0.8122203E+00
 -0.1758958E+01  0.3029505E+01 -0.2113425E+01   0.3210085E-02  0.5833420E+00 -0.8122203E+00
 -0.1718563E+01  0.3052828E+01 -0.2096515E+01   0.3210085E-02  0.5833420E+00 -0.8122203E+00
           6
  0.1758958E+01 -0.3029505E+01  0.2113425E+01   0.5000016E+00 -0.8660245E+00 -0.9909778E-06
  0.1718563E+01 -0.3052828E+01  0.2096515E+01   0.5000016E+00 -0.8660245E+00 -0.9909778E-06
  0.2333935E-01 -0.4031566E+01 -0.6959377E+00   0.5000016E+00 -0.8660245E+00 -0.9909778E-06
  0.1744158E+01 -0.3038045E+01 -0.2113432E+01   0.5000016E+00 -0.8660245E+00 -0.9909778E-06
  0.1784554E+01 -0.3014723E+01 -0.2096522E+01   0.5000016E+00 -0.8660245E+00 -0.9909778E-06
  0.3479777E+01 -0.2035984E+01  0.6959308E+00   0.5000016E+00 -0.8660245E+00 -0.9909778E-06
           6
  0.1784554E+01 -0.3014723E+01 -0.2096522E+01   0.8676901E+00 -0.1661761E+00 -0.4685077E+00
  0.1781289E+01  0.1028406E+01 -0.3536636E+01   0.8676901E+00 -0.1661761E+00 -0.4685077E+00
  0.1781290E+01  0.1028408E+01 -0.3536635E+01   0.8676901E+00 -0.1661761E+00 -0.4685077E+00
  0.3476514E+01  0.2007147E+01 -0.7441815E+00   0.8676901E+00 -0.1661761E+00 -0.4685077E+00
  0.3479778E+01 -0.2035982E+01  0.6959322E+00   0.8676901E+00 -0.1661761E+00 -0.4685077E+00
  0.3479777E+01 -0.2035984E+01  0.6959308E+00   0.8676901E+00 -0.1661761E+00 -0.4685077E+00
           4
 -0.3479777E+01  0.2035984E+01 -0.6959308E+00  -0.6707734E+00  0.6485904E+00 -0.3597131E+00
 -0.1758958E+01  0.3029505E+01 -0.2113425E+01  -0.6707734E+00  0.6485904E+00 -0.3597131E+00
 -0.1758960E+01  0.3029503E+01 -0.2113427E+01  -0.6707734E+00  0.6485904E+00 -0.3597131E+00
 -0.3479778E+01  0.2035982E+01 -0.6959322E+00  -0.6707734E+00  0.6485904E+00 -0.3597131E+00
           6
 -0.1781290E+01 -0.1028408E+01  0.3536635E+01  -0.8676901E+00  0.1661761E+00  0.4685077E+00
 -0.1781289E+01 -0.1028406E+01  0.3536636E+01  -0.8676901E+00  0.1661761E+00  0.4685077E+00
 -0.1784554E+01  0.3014723E+01  0.2096522E+01  -0.8676901E+00  0.1661761E+00  0.4685077E+00
 -0.3479777E+01  0.2035984E+01 -0.6959308E+00  -0.8676901E+00  0.1661761E+00  0.4685077E+00
 -0.3479778E+01  0.2035982E+01 -0.6959322E+00  -0.8676901E+00  0.1661761E+00  0.4685077E+00
 -0.3476514E+01 -0.2007147E+01  0.7441815E+00  -0.8676901E+00  0.1661761E+00  0.4685077E+00
           4
 -0.3476514E+01 -0.2007147E+01  0.7441815E+00  -0.2899342E+00 -0.8345284E+00  0.4685087E+00
  0.2333935E-01 -0.4031566E+01 -0.6959377E+00  -0.2899342E+00 -0.8345284E+00  0.4685087E+00
  0.1718563E+01 -0.3052828E+01  0.2096515E+01  -0.2899342E+00 -0.8345284E+00  0.4685087E+00
 -0.1781290E+01 -0.1028408E+01  0.3536635E+01  -0.2899342E+00 -0.8345284E+00  0.4685087E+00
           6
 -0.2333935E-01  0.4031566E+01  0.6959377E+00  -0.5000016E+00  0.8660245E+00  0.9909778E-06
 -0.1718563E+01  0.3052828E+01 -0.2096515E+01  -0.5000016E+00  0.8660245E+00  0.9909778E-06
 -0.1758958E+01  0.3029505E+01 -0.2113425E+01  -0.5000016E+00  0.8660245E+00  0.9909778E-06
 -0.3479777E+01  0.2035984E+01 -0.6959308E+00  -0.5000016E+00  0.8660245E+00  0.9909778E-06
 -0.1784554E+01  0.3014723E+01  0.2096522E+01  -0.5000016E+00  0.8660245E+00  0.9909778E-06
 -0.1744158E+01  0.3038045E+01  0.2113432E+01  -0.5000016E+00  0.8660245E+00  0.9909778E-06
           4
 -0.2333935E-01  0.4031566E+01  0.6959377E+00   0.2899342E+00  0.8345284E+00 -0.4685087E+00
  0.3476514E+01  0.2007147E+01 -0.7441815E+00   0.2899342E+00  0.8345284E+00 -0.4685087E+00
  0.1781290E+01  0.1028408E+01 -0.3536635E+01   0.2899342E+00  0.8345284E+00 -0.4685087E+00
 -0.1718563E+01  0.3052828E+01 -0.2096515E+01   0.2899342E+00  0.8345284E+00 -0.4685087E+00
           6
 -0.1740893E+01 -0.1005084E+01  0.3553546E+01  -0.3210084E-02 -0.5833420E+00  0.8122203E+00
 -0.1781289E+01 -0.1028406E+01  0.3536636E+01  -0.3210084E-02 -0.5833420E+00  0.8122203E+00
 -0.1781290E+01 -0.1028408E+01  0.3536635E+01  -0.3210084E-02 -0.5833420E+00  0.8122203E+00
  0.1718563E+01 -0.3052828E+01  0.2096515E+01  -0.3210084E-02 -0.5833420E+00  0.8122203E+00
  0.1758958E+01 -0.3029505E+01  0.2113425E+01  -0.3210084E-02 -0.5833420E+00  0.8122203E+00
  0.1758960E+01 -0.3029503E+01  0.2113427E+01  -0.3210084E-02 -0.5833420E+00  0.8122203E+00
           4
  0.1758958E+01 -0.3029505E+01  0.2113425E+01   0.6707734E+00 -0.6485904E+00  0.3597131E+00
  0.3479777E+01 -0.2035984E+01  0.6959308E+00   0.6707734E+00 -0.6485904E+00  0.3597131E+00
  0.3479778E+01 -0.2035982E+01  0.6959322E+00   0.6707734E+00 -0.6485904E+00  0.3597131E+00
  0.1758960E+01 -0.3029503E+01  0.2113427E+01   0.6707734E+00 -0.6485904E+00  0.3597131E+00
           6
  0.1758960E+01 -0.3029503E+01  0.2113427E+01   0.5029402E+00  0.2903733E+00  0.8140850E+00
  0.3479778E+01 -0.2035982E+01  0.6959322E+00   0.5029402E+00  0.2903733E+00  0.8140850E+00
  0.3476514E+01  0.2007147E+01 -0.7441815E+00   0.5029402E+00  0.2903733E+00  0.8140850E+00
 -0.2333935E-01  0.4031566E+01  0.6959377E+00   0.5029402E+00  0.2903733E+00  0.8140850E+00
 -0.1744158E+01  0.3038045E+01  0.2113432E+01   0.5029402E+00  0.2903733E+00  0.8140850E+00
 -0.1740893E+01 -0.1005084E+01  0.3553546E+01   0.5029402E+00  0.2903733E+00  0.8140850E+00
           4
 -0.1740893E+01 -0.1005084E+01  0.3553546E+01  -0.5067961E+00  0.2888931E+00  0.8122183E+00
 -0.1744158E+01  0.3038045E+01  0.2113432E+01  -0.5067961E+00  0.2888931E+00  0.8122183E+00
 -0.1784554E+01  0.3014723E+01  0.2096522E+01  -0.5067961E+00  0.2888931E+00  0.8122183E+00
 -0.1781289E+01 -0.1028406E+01  0.3536636E+01  -0.5067961E+00  0.2888931E+00  0.8122183E+00
 WIGNER-SEITZ-PRIMCELL_END
 WIGNER-SEITZ-CONVCELL
           4
  0.1744158E+01 -0.3038045E+01 -0.2113432E+01   0.5067961E+00 -0.2888931E+00 -0.8122183E+00
  0.1740893E+01  0.1005084E+01 -0.3553546E+01   0.5067961E+00 -0.2888931E+00 -0.8122183E+00
  0.1781289E+01  0.1028406E+01 -0.3536636E+01   0.5067961E+00 -0.2888931E+00 -0.8122183E+00
  0.1784554E+01 -0.3014723E+01 -0.2096522E+01   0.5067961E+00 -0.2888931E+00 -0.8122183E+00
           6
 -0.3476514E+01 -0.2007147E+01  0.7441815E+00  -0.5029402E+00 -0.2903733E+00 -0.8140850E+00
 -0.3479778E+01  0.2035982E+01 -0.6959322E+00  -0.5029402E+00 -0.2903733E+00 -0.8140850E+00
 -0.1758960E+01  0.3029503E+01 -0.2113427E+01  -0.5029402E+00 -0.2903733E+00 -0.8140850E+00
  0.1740893E+01  0.1005084E+01 -0.3553546E+01  -0.5029402E+00 -0.2903733E+00 -0.8140850E+00
  0.1744158E+01 -0.3038045E+01 -0.2113432E+01  -0.5029402E+00 -0.2903733E+00 -0.8140850E+00
  0.2333935E-01 -0.4031566E+01 -0.6959377E+00  -0.5029402E+00 -0.2903733E+00 -0.8140850E+00
           6
  0.1781290E+01  0.1028408E+01 -0.3536635E+01   0.3210085E-02  0.5833420E+00 -0.8122203E+00
  0.1781289E+01  0.1028406E+01 -0.3536636E+01   0.3210085E-02  0.5833420E+00 -0.8122203E+00
  0.1740893E+01  0.1005084E+01 -0.3553546E+01   0.3210085E-02  0.5833420E+00 -0.8122203E+00
 -0.1758960E+01  0.3029503E+01 -0.2113427E+01   0.3210085E-02  0.5833420E+00 -0.8122203E+00
 -0.1758958E+01  0.3029505E+01 -0.2113425E+01   0.3210085E-02  0.5833420E+00 -0.8122203E+00
 -0.1718563E+01  0.3052828E+01 -0.2096515E+01   0.3210085E-02  0.5833420E+00 -0.8122203E+00
           6
  0.1758958E+01 -0.3029505E+01  0.2113425E+01   0.5000016E+00 -0.8660245E+00 -0.9909778E-06
  0.1718563E+01 -0.3052828E+01  0.2096515E+01   0.5000016E+00 -0.8660245E+00 -0.9909778E-06
  0.2333935E-01 -0.4031566E+01 -0.6959377E+00   0.5000016E+00 -0.8660245E+00 -0.9909778E-06
  0.1744158E+01 -0.3038045E+01 -0.2113432E+01   0.5000016E+00 -0.8660245E+00 -0.9909778E-06
  0.1784554E+01 -0.3014723E+01 -0.2096522E+01   0.5000016E+00 -0.8660245E+00 -0.9909778E-06
  0.3479777E+01 -0.2035984E+01  0.6959308E+00   0.5000016E+00 -0.8660245E+00 -0.9909778E-06
           6
  0.1784554E+01 -0.3014723E+01 -0.2096522E+01   0.8676901E+00 -0.1661761E+00 -0.4685077E+00
  0.1781289E+01  0.1028406E+01 -0.3536636E+01   0.8676901E+00 -0.1661761E+00 -0.4685077E+00
  0.1781290E+01  0.1028408E+01 -0.3536635E+01   0.8676901E+00 -0.1661761E+00 -0.4685077E+00
  0.3476514E+01  0.2007147E+01 -0.7441815E+00   0.8676901E+00 -0.1661761E+00 -0.4685077E+00
  0.3479778E+01 -0.2035982E+01  0.6959322E+00   0.8676901E+00 -0.1661761E+00 -0.4685077E+00
  0.3479777E+01 -0.2035984E+01  0.6959308E+00   0.8676901E+00 -0.1661761E+00 -0.4685077E+00
           4
 -0.3479777E+01  0.2035984E+01 -0.6959308E+00  -0.6707734E+00  0.6485904E+00 -0.3597131E+00
 -0.1758958E+01  0.3029505E+01 -0.2113425E+01  -0.6707734E+00  0.6485904E+00 -0.3597131E+00
 -0.1758960E+01  0.3029503E+01 -0.2113427E+01  -0.6707734E+00  0.6485904E+00 -0.3597131E+00
 -0.3479778E+01  0.2035982E+01 -0.6959322E+00  -0.6707734E+00  0.6485904E+00 -0.3597131E+00
           6
 -0.1781290E+01 -0.1028408E+01  0.3536635E+01  -0.8676901E+00  0.1661761E+00  0.4685077E+00
 -0.1781289E+01 -0.1028406E+01  0.3536636E+01  -0.8676901E+00  0.1661761E+00  0.4685077E+00
 -0.1784554E+01  0.3014723E+01  0.2096522E+01  -0.8676901E+00  0.1661761E+00  0.4685077E+00
 -0.3479777E+01  0.2035984E+01 -0.6959308E+00  -0.8676901E+00  0.1661761E+00  0.4685077E+00
 -0.3479778E+01  0.2035982E+01 -0.6959322E+00  -0.8676901E+00  0.1661761E+00  0.4685077E+00
 -0.3476514E+01 -0.2007147E+01  0.7441815E+00  -0.8676901E+00  0.1661761E+00  0.4685077E+00
           4
 -0.3476514E+01 -0.2007147E+01  0.7441815E+00  -0.2899342E+00 -0.8345284E+00  0.4685087E+00
  0.2333935E-01 -0.4031566E+01 -0.6959377E+00  -0.2899342E+00 -0.8345284E+00  0.4685087E+00
  0.1718563E+01 -0.3052828E+01  0.2096515E+01  -0.2899342E+00 -0.8345284E+00  0.4685087E+00
 -0.1781290E+01 -0.1028408E+01  0.3536635E+01  -0.2899342E+00 -0.8345284E+00  0.4685087E+00
           6
 -0.2333935E-01  0.4031566E+01  0.6959377E+00  -0.5000016E+00  0.8660245E+00  0.9909778E-06
 -0.1718563E+01  0.3052828E+01 -0.2096515E+01  -0.5000016E+00  0.8660245E+00  0.9909778E-06
 -0.1758958E+01  0.3029505E+01 -0.2113425E+01  -0.5000016E+00  0.8660245E+00  0.9909778E-06
 -0.3479777E+01  0.2035984E+01 -0.6959308E+00  -0.5000016E+00  0.8660245E+00  0.9909778E-06
 -0.1784554E+01  0.3014723E+01  0.2096522E+01  -0.5000016E+00  0.8660245E+00  0.9909778E-06
 -0.1744158E+01  0.3038045E+01  0.2113432E+01  -0.5000016E+00  0.8660245E+00  0.9909778E-06
           4
 -0.2333935E-01  0.4031566E+01  0.6959377E+00   0.2899342E+00  0.8345284E+00 -0.4685087E+00
  0.3476514E+01  0.2007147E+01 -0.7441815E+00   0.2899342E+00  0.8345284E+00 -0.4685087E+00
  0.1781290E+01  0.1028408E+01 -0.3536635E+01   0.2899342E+00  0.8345284E+00 -0.4685087E+00
 -0.1718563E+01  0.3052828E+01 -0.2096515E+01   0.2899342E+00  0.8345284E+00 -0.4685087E+00
           6
 -0.1740893E+01 -0.1005084E+01  0.3553546E+01  -0.3210084E-02 -0.5833420E+00  0.8122203E+00
 -0.1781289E+01 -0.1028406E+01  0.3536636E+01  -0.3210084E-02 -0.5833420E+00  0.8122203E+00
 -0.1781290E+01 -0.1028408E+01  0.3536635E+01  -0.3210084E-02 -0.5833420E+00  0.8122203E+00
  0.1718563E+01 -0.3052828E+01  0.2096515E+01  -0.3210084E-02 -0.5833420E+00  0.8122203E+00
  0.1758958E+01 -0.3029505E+01  0.2113425E+01  -0.3210084E-02 -0.5833420E+00  0.8122203E+00
  0.1758960E+01 -0.3029503E+01  0.2113427E+01  -0.3210084E-02 -0.5833420E+00  0.8122203E+00
           4
  0.1758958E+01 -0.3029505E+01  0.2113425E+01   0.6707734E+00 -0.6485904E+00  0.3597131E+00
  0.3479777E+01 -0.2035984E+01  0.6959308E+00   0.6707734E+00 -0.6485904E+00  0.3597131E+00
  0.3479778E+01 -0.2035982E+01  0.6959322E+00   0.6707734E+00 -0.6485904E+00  0.3597131E+00
  0.1758960E+01 -0.3029503E+01  0.2113427E+01   0.6707734E+00 -0.6485904E+00  0.3597131E+00
           6
  0.1758960E+01 -0.3029503E+01  0.2113427E+01   0.5029402E+00  0.2903733E+00  0.8140850E+00
  0.3479778E+01 -0.2035982E+01  0.6959322E+00   0.5029402E+00  0.2903733E+00  0.8140850E+00
  0.3476514E+01  0.2007147E+01 -0.7441815E+00   0.5029402E+00  0.2903733E+00  0.8140850E+00
 -0.2333935E-01  0.4031566E+01  0.6959377E+00   0.5029402E+00  0.2903733E+00  0.8140850E+00
 -0.1744158E+01  0.3038045E+01  0.2113432E+01   0.5029402E+00  0.2903733E+00  0.8140850E+00
 -0.1740893E+01 -0.1005084E+01  0.3553546E+01   0.5029402E+00  0.2903733E+00  0.8140850E+00
           4
 -0.1740893E+01 -0.1005084E+01  0.3553546E+01  -0.5067961E+00  0.2888931E+00  0.8122183E+00
 -0.1744158E+01  0.3038045E+01  0.2113432E+01  -0.5067961E+00  0.2888931E+00  0.8122183E+00
 -0.1784554E+01  0.3014723E+01  0.2096522E+01  -0.5067961E+00  0.2888931E+00  0.8122183E+00
 -0.1781289E+01 -0.1028406E+01  0.3536636E+01  -0.5067961E+00  0.2888931E+00  0.8122183E+00
 WIGNER-SEITZ-CONVCELL_END
 BRILLOUIN-ZONE-PRIMCELL
           6
 -0.1614843E+00 -0.5114275E-01 -0.5996958E-01  -0.8141740E+00 -0.4700652E+00 -0.3408217E+00
 -0.1606322E+00 -0.5162848E-01 -0.6133518E-01  -0.8141740E+00 -0.4700652E+00 -0.3408217E+00
 -0.1250274E+00 -0.1132976E+00 -0.6133525E-01  -0.8141740E+00 -0.4700652E+00 -0.3408217E+00
 -0.1250328E+00 -0.1142785E+00 -0.5996948E-01  -0.8141740E+00 -0.4700652E+00 -0.3408217E+00
 -0.1258849E+00 -0.1137928E+00 -0.5860388E-01  -0.8141740E+00 -0.4700652E+00 -0.3408217E+00
 -0.1614897E+00 -0.5212366E-01 -0.5860381E-01  -0.8141740E+00 -0.4700652E+00 -0.3408217E+00
           4
 -0.1657907E-01  0.3154074E-01  0.1759561E+00  -0.7050173E+00 -0.4070443E+00  0.5807457E+00
 -0.1614897E+00 -0.5212366E-01 -0.5860381E-01  -0.7050173E+00 -0.4070443E+00  0.5807457E+00
 -0.1258849E+00 -0.1137928E+00 -0.5860388E-01  -0.7050173E+00 -0.4070443E+00  0.5807457E+00
  0.1902579E-01 -0.3012842E-01  0.1759560E+00  -0.7050173E+00 -0.4070443E+00  0.5807457E+00
           6
  0.1889276E-01  0.1346060E+00  0.1172796E+00  -0.8154381E+00  0.4716737E+00  0.3355364E+00
 -0.1260179E+00  0.5094160E-01 -0.1172803E+00  -0.8154381E+00  0.4716737E+00  0.3355364E+00
 -0.1614843E+00 -0.5114275E-01 -0.5996958E-01  -0.8154381E+00  0.4716737E+00  0.3355364E+00
 -0.1614897E+00 -0.5212366E-01 -0.5860381E-01  -0.8154381E+00  0.4716737E+00  0.3355364E+00
 -0.1657907E-01  0.3154074E-01  0.1759561E+00  -0.8154381E+00  0.4716737E+00  0.3355364E+00
  0.1888736E-01  0.1336251E+00  0.1186454E+00  -0.8154381E+00  0.4716737E+00  0.3355364E+00
           6
  0.1251658E+00 -0.5045588E-01  0.1186459E+00   0.7606934E-03 -0.9420262E+00  0.3355383E+00
  0.1902579E-01 -0.3012842E-01  0.1759560E+00   0.7606934E-03 -0.9420262E+00  0.3355383E+00
 -0.1258849E+00 -0.1137928E+00 -0.5860388E-01   0.7606934E-03 -0.9420262E+00  0.3355383E+00
 -0.1250328E+00 -0.1142785E+00 -0.5996948E-01   0.7606934E-03 -0.9420262E+00  0.3355383E+00
 -0.1889276E-01 -0.1346060E+00 -0.1172796E+00   0.7606934E-03 -0.9420262E+00  0.3355383E+00
  0.1260179E+00 -0.5094160E-01  0.1172803E+00   0.7606934E-03 -0.9420262E+00  0.3355383E+00
           4
 -0.1260179E+00  0.5094160E-01 -0.1172803E+00  -0.8487155E+00 -0.2033710E-02 -0.5288458E+00
 -0.1251658E+00  0.5045588E-01 -0.1186459E+00  -0.8487155E+00 -0.2033710E-02 -0.5288458E+00
 -0.1606322E+00 -0.5162848E-01 -0.6133518E-01  -0.8487155E+00 -0.2033710E-02 -0.5288458E+00
 -0.1614843E+00 -0.5114275E-01 -0.5996958E-01  -0.8487155E+00 -0.2033710E-02 -0.5288458E+00
           6
 -0.1251658E+00  0.5045588E-01 -0.1186459E+00  -0.4971030E+00 -0.2870028E+00 -0.8188517E+00
 -0.1902579E-01  0.3012842E-01 -0.1759560E+00  -0.4971030E+00 -0.2870028E+00 -0.8188517E+00
  0.1657907E-01 -0.3154074E-01 -0.1759561E+00  -0.4971030E+00 -0.2870028E+00 -0.8188517E+00
 -0.1888736E-01 -0.1336251E+00 -0.1186454E+00  -0.4971030E+00 -0.2870028E+00 -0.8188517E+00
 -0.1250274E+00 -0.1132976E+00 -0.6133525E-01  -0.4971030E+00 -0.2870028E+00 -0.8188517E+00
 -0.1606322E+00 -0.5162848E-01 -0.6133518E-01  -0.4971030E+00 -0.2870028E+00 -0.8188517E+00
           4
 -0.1250328E+00 -0.1142785E+00 -0.5996948E-01  -0.4261193E+00 -0.7339939E+00 -0.5288434E+00
 -0.1250274E+00 -0.1132976E+00 -0.6133525E-01  -0.4261193E+00 -0.7339939E+00 -0.5288434E+00
 -0.1888736E-01 -0.1336251E+00 -0.1186454E+00  -0.4261193E+00 -0.7339939E+00 -0.5288434E+00
 -0.1889276E-01 -0.1346060E+00 -0.1172796E+00  -0.4261193E+00 -0.7339939E+00 -0.5288434E+00
           6
 -0.1657907E-01  0.3154074E-01  0.1759561E+00   0.4971030E+00  0.2870028E+00  0.8188517E+00
  0.1902579E-01 -0.3012842E-01  0.1759560E+00   0.4971030E+00  0.2870028E+00  0.8188517E+00
  0.1251658E+00 -0.5045588E-01  0.1186459E+00   0.4971030E+00  0.2870028E+00  0.8188517E+00
  0.1606322E+00  0.5162848E-01  0.6133518E-01   0.4971030E+00  0.2870028E+00  0.8188517E+00
  0.1250274E+00  0.1132976E+00  0.6133525E-01   0.4971030E+00  0.2870028E+00  0.8188517E+00
  0.1888736E-01  0.1336251E+00  0.1186454E+00   0.4971030E+00  0.2870028E+00  0.8188517E+00
           6
  0.1258849E+00  0.1137928E+00  0.5860388E-01  -0.7606934E-03  0.9420262E+00 -0.3355383E+00
 -0.1902579E-01  0.3012842E-01 -0.1759560E+00  -0.7606934E-03  0.9420262E+00 -0.3355383E+00
 -0.1251658E+00  0.5045588E-01 -0.1186459E+00  -0.7606934E-03  0.9420262E+00 -0.3355383E+00
 -0.1260179E+00  0.5094160E-01 -0.1172803E+00  -0.7606934E-03  0.9420262E+00 -0.3355383E+00
  0.1889276E-01  0.1346060E+00  0.1172796E+00  -0.7606934E-03  0.9420262E+00 -0.3355383E+00
  0.1250328E+00  0.1142785E+00  0.5996948E-01  -0.7606934E-03  0.9420262E+00 -0.3355383E+00
           4
  0.1250274E+00  0.1132976E+00  0.6133525E-01   0.4261193E+00  0.7339939E+00  0.5288434E+00
  0.1250328E+00  0.1142785E+00  0.5996948E-01   0.4261193E+00  0.7339939E+00  0.5288434E+00
  0.1889276E-01  0.1346060E+00  0.1172796E+00   0.4261193E+00  0.7339939E+00  0.5288434E+00
  0.1888736E-01  0.1336251E+00  0.1186454E+00   0.4261193E+00  0.7339939E+00  0.5288434E+00
           6
  0.1614843E+00  0.5114275E-01  0.5996958E-01   0.8154381E+00 -0.4716737E+00 -0.3355364E+00
  0.1260179E+00 -0.5094160E-01  0.1172803E+00   0.8154381E+00 -0.4716737E+00 -0.3355364E+00
 -0.1889276E-01 -0.1346060E+00 -0.1172796E+00   0.8154381E+00 -0.4716737E+00 -0.3355364E+00
 -0.1888736E-01 -0.1336251E+00 -0.1186454E+00   0.8154381E+00 -0.4716737E+00 -0.3355364E+00
  0.1657907E-01 -0.3154074E-01 -0.1759561E+00   0.8154381E+00 -0.4716737E+00 -0.3355364E+00
  0.1614897E+00  0.5212366E-01  0.5860381E-01   0.8154381E+00 -0.4716737E+00 -0.3355364E+00
           4
  0.1251658E+00 -0.5045588E-01  0.1186459E+00   0.8487155E+00  0.2033710E-02  0.5288458E+00
  0.1260179E+00 -0.5094160E-01  0.1172803E+00   0.8487155E+00  0.2033710E-02  0.5288458E+00
  0.1614843E+00  0.5114275E-01  0.5996958E-01   0.8487155E+00  0.2033710E-02  0.5288458E+00
  0.1606322E+00  0.5162848E-01  0.6133518E-01   0.8487155E+00  0.2033710E-02  0.5288458E+00
           4
  0.1614897E+00  0.5212366E-01  0.5860381E-01   0.7050173E+00  0.4070443E+00 -0.5807457E+00
  0.1657907E-01 -0.3154074E-01 -0.1759561E+00   0.7050173E+00  0.4070443E+00 -0.5807457E+00
 -0.1902579E-01  0.3012842E-01 -0.1759560E+00   0.7050173E+00  0.4070443E+00 -0.5807457E+00
  0.1258849E+00  0.1137928E+00  0.5860388E-01   0.7050173E+00  0.4070443E+00 -0.5807457E+00
           6
  0.1250274E+00  0.1132976E+00  0.6133525E-01   0.8141740E+00  0.4700652E+00  0.3408217E+00
  0.1606322E+00  0.5162848E-01  0.6133518E-01   0.8141740E+00  0.4700652E+00  0.3408217E+00
  0.1614843E+00  0.5114275E-01  0.5996958E-01   0.8141740E+00  0.4700652E+00  0.3408217E+00
  0.1614897E+00  0.5212366E-01  0.5860381E-01   0.8141740E+00  0.4700652E+00  0.3408217E+00
  0.1258849E+00  0.1137928E+00  0.5860388E-01   0.8141740E+00  0.4700652E+00  0.3408217E+00
  0.1250328E+00  0.1142785E+00  0.5996948E-01   0.8141740E+00  0.4700652E+00  0.3408217E+00
 BRILLOUIN-ZONE-PRIMCELL_END
 BRILLOUIN-ZONE-CONVCELL
           6
 -0.1614843E+00 -0.5114275E-01 -0.5996958E-01  -0.8141740E+00 -0.4700652E+00 -0.3408217E+00
 -0.1606322E+00 -0.5162848E-01 -0.6133518E-01  -0.8141740E+00 -0.4700652E+00 -0.3408217E+00
 -0.1250274E+00 -0.1132976E+00 -0.6133525E-01  -0.8141740E+00 -0.4700652E+00 -0.3408217E+00
 -0.1250328E+00 -0.1142785E+00 -0.5996948E-01  -0.8141740E+00 -0.4700652E+00 -0.3408217E+00
 -0.1258849E+00 -0.1137928E+00 -0.5860388E-01  -0.8141740E+00 -0.4700652E+00 -0.3408217E+00
 -0.1614897E+00 -0.5212366E-01 -0.5860381E-01  -0.8141740E+00 -0.4700652E+00 -0.3408217E+00
           4
 -0.1657907E-01  0.3154074E-01  0.1759561E+00  -0.7050173E+00 -0.4070443E+00  0.5807457E+00
 -0.1614897E+00 -0.5212366E-01 -0.5860381E-01  -0.7050173E+00 -0.4070443E+00  0.5807457E+00
 -0.1258849E+00 -0.1137928E+00 -0.5860388E-01  -0.7050173E+00 -0.4070443E+00  0.5807457E+00
  0.1902579E-01 -0.3012842E-01  0.1759560E+00  -0.7050173E+00 -0.4070443E+00  0.5807457E+00
           6
  0.1889276E-01  0.1346060E+00  0.1172796E+00  -0.8154381E+00  0.4716737E+00  0.3355364E+00
 -0.1260179E+00  0.5094160E-01 -0.1172803E+00  -0.8154381E+00  0.4716737E+00  0.3355364E+00
 -0.1614843E+00 -0.5114275E-01 -0.5996958E-01  -0.8154381E+00  0.4716737E+00  0.3355364E+00
 -0.1614897E+00 -0.5212366E-01 -0.5860381E-01  -0.8154381E+00  0.4716737E+00  0.3355364E+00
 -0.1657907E-01  0.3154074E-01  0.1759561E+00  -0.8154381E+00  0.4716737E+00  0.3355364E+00
  0.1888736E-01  0.1336251E+00  0.1186454E+00  -0.8154381E+00  0.4716737E+00  0.3355364E+00
           6
  0.1251658E+00 -0.5045588E-01  0.1186459E+00   0.7606934E-03 -0.9420262E+00  0.3355383E+00
  0.1902579E-01 -0.3012842E-01  0.1759560E+00   0.7606934E-03 -0.9420262E+00  0.3355383E+00
 -0.1258849E+00 -0.1137928E+00 -0.5860388E-01   0.7606934E-03 -0.9420262E+00  0.3355383E+00
 -0.1250328E+00 -0.1142785E+00 -0.5996948E-01   0.7606934E-03 -0.9420262E+00  0.3355383E+00
 -0.1889276E-01 -0.1346060E+00 -0.1172796E+00   0.7606934E-03 -0.9420262E+00  0.3355383E+00
  0.1260179E+00 -0.5094160E-01  0.1172803E+00   0.7606934E-03 -0.9420262E+00  0.3355383E+00
           4
 -0.1260179E+00  0.5094160E-01 -0.1172803E+00  -0.8487155E+00 -0.2033710E-02 -0.5288458E+00
 -0.1251658E+00  0.5045588E-01 -0.1186459E+00  -0.8487155E+00 -0.2033710E-02 -0.5288458E+00
 -0.1606322E+00 -0.5162848E-01 -0.6133518E-01  -0.8487155E+00 -0.2033710E-02 -0.5288458E+00
 -0.1614843E+00 -0.5114275E-01 -0.5996958E-01  -0.8487155E+00 -0.2033710E-02 -0.5288458E+00
           6
 -0.1251658E+00  0.5045588E-01 -0.1186459E+00  -0.4971030E+00 -0.2870028E+00 -0.8188517E+00
 -0.1902579E-01  0.3012842E-01 -0.1759560E+00  -0.4971030E+00 -0.2870028E+00 -0.8188517E+00
  0.1657907E-01 -0.3154074E-01 -0.1759561E+00  -0.4971030E+00 -0.2870028E+00 -0.8188517E+00
 -0.1888736E-01 -0.1336251E+00 -0.1186454E+00  -0.4971030E+00 -0.2870028E+00 -0.8188517E+00
 -0.1250274E+00 -0.1132976E+00 -0.6133525E-01  -0.4971030E+00 -0.2870028E+00 -0.8188517E+00
 -0.1606322E+00 -0.5162848E-01 -0.6133518E-01  -0.4971030E+00 -0.2870028E+00 -0.8188517E+00
           4
 -0.1250328E+00 -0.1142785E+00 -0.5996948E-01  -0.4261193E+00 -0.7339939E+00 -0.5288434E+00
 -0.1250274E+00 -0.1132976E+00 -0.6133525E-01  -0.4261193E+00 -0.7339939E+00 -0.5288434E+00
 -0.1888736E-01 -0.1336251E+00 -0.1186454E+00  -0.4261193E+00 -0.7339939E+00 -0.5288434E+00
 -0.1889276E-01 -0.1346060E+00 -0.1172796E+00  -0.4261193E+00 -0.7339939E+00 -0.5288434E+00
           6
 -0.1657907E-01  0.3154074E-01  0.1759561E+00   0.4971030E+00  0.2870028E+00  0.8188517E+00
  0.1902579E-01 -0.3012842E-01  0.1759560E+00   0.4971030E+00  0.2870028E+00  0.8188517E+00
  0.1251658E+00 -0.5045588E-01  0.1186459E+00   0.4971030E+00  0.2870028E+00  0.8188517E+00
  0.1606322E+00  0.5162848E-01  0.6133518E-01   0.4971030E+00  0.2870028E+00  0.8188517E+00
  0.1250274E+00  0.1132976E+00  0.6133525E-01   0.4971030E+00  0.2870028E+00  0.8188517E+00
  0.1888736E-01  0.1336251E+00  0.1186454E+00   0.4971030E+00  0.2870028E+00  0.8188517E+00
           6
  0.1258849E+00  0.1137928E+00  0.5860388E-01  -0.7606934E-03  0.9420262E+00 -0.3355383E+00
 -0.1902579E-01  0.3012842E-01 -0.1759560E+00  -0.7606934E-03  0.9420262E+00 -0.3355383E+00
 -0.1251658E+00  0.5045588E-01 -0.1186459E+00  -0.7606934E-03  0.9420262E+00 -0.3355383E+00
 -0.1260179E+00  0.5094160E-01 -0.1172803E+00  -0.7606934E-03  0.9420262E+00 -0.3355383E+00
  0.1889276E-01  0.1346060E+00  0.1172796E+00  -0.7606934E-03  0.9420262E+00 -0.3355383E+00
  0.1250328E+00  0.1142785E+00  0.5996948E-01  -0.7606934E-03  0.9420262E+00 -0.3355383E+00
           4
  0.1250274E+00  0.1132976E+00  0.6133525E-01   0.4261193E+00  0.7339939E+00  0.5288434E+00
  0.1250328E+00  0.1142785E+00  0.5996948E-01   0.4261193E+00  0.7339939E+00  0.5288434E+00
  0.1889276E-01  0.1346060E+00  0.1172796E+00   0.4261193E+00  0.7339939E+00  0.5288434E+00
  0.1888736E-01  0.1336251E+00  0.1186454E+00   0.4261193E+00  0.7339939E+00  0.5288434E+00
           6
  0.1614843E+00  0.5114275E-01  0.5996958E-01   0.8154381E+00 -0.4716737E+00 -0.3355364E+00
  0.1260179E+00 -0.5094160E-01  0.1172803E+00   0.8154381E+00 -0.4716737E+00 -0.3355364E+00
 -0.1889276E-01 -0.1346060E+00 -0.1172796E+00   0.8154381E+00 -0.4716737E+00 -0.3355364E+00
 -0.1888736E-01 -0.1336251E+00 -0.1186454E+00   0.8154381E+00 -0.4716737E+00 -0.3355364E+00
  0.1657907E-01 -0.3154074E-01 -0.1759561E+00   0.8154381E+00 -0.4716737E+00 -0.3355364E+00
  0.1614897E+00  0.5212366E-01  0.5860381E-01   0.8154381E+00 -0.4716737E+00 -0.3355364E+00
           4
  0.1251658E+00 -0.5045588E-01  0.1186459E+00   0.8487155E+00  0.2033710E-02  0.5288458E+00
  0.1260179E+00 -0.5094160E-01  0.1172803E+00   0.8487155E+00  0.2033710E-02  0.5288458E+00
  0.1614843E+00  0.5114275E-01  0.5996958E-01   0.8487155E+00  0.2033710E-02  0.5288458E+00
  0.1606322E+00  0.5162848E-01  0.6133518E-01   0.8487155E+00  0.2033710E-02  0.5288458E+00
           4
  0.1614897E+00  0.5212366E-01  0.5860381E-01   0.7050173E+00  0.4070443E+00 -0.5807457E+00
  0.1657907E-01 -0.3154074E-01 -0.1759561E+00   0.7050173E+00  0.4070443E+00 -0.5807457E+00
 -0.1902579E-01  0.3012842E-01 -0.1759560E+00   0.7050173E+00  0.4070443E+00 -0.5807457E+00
  0.1258849E+00  0.1137928E+00  0.5860388E-01   0.7050173E+00  0.4070443E+00 -0.5807457E+00
           6
  0.1250274E+00  0.1132976E+00  0.6133525E-01   0.8141740E+00  0.4700652E+00  0.3408217E+00
  0.1606322E+00  0.5162848E-01  0.6133518E-01   0.8141740E+00  0.4700652E+00  0.3408217E+00
  0.1614843E+00  0.5114275E-01  0.5996958E-01   0.8141740E+00  0.4700652E+00  0.3408217E+00
  0.1614897E+00  0.5212366E-01  0.5860381E-01   0.8141740E+00  0.4700652E+00  0.3408217E+00
  0.1258849E+00  0.1137928E+00  0.5860388E-01   0.8141740E+00  0.4700652E+00  0.3408217E+00
  0.1250328E+00  0.1142785E+00  0.5996948E-01   0.8141740E+00  0.4700652E+00  0.3408217E+00
 BRILLOUIN-ZONE-CONVCELL_END
 ATOMS
   25    5.2306226200    3.0190160480    2.0960067200   -0.0003908700    0.0000622000    0.0002006900
   25    6.9765439820    6.0515940270    2.0806830920   -0.0000346300   -0.0000283500    0.0001262600
   25    8.7281080590    3.0154514230    2.0815433700    0.0001881700    0.0001194400   -0.0000637300
   25   10.4764041860    6.0494286160    2.0635292290   -0.0001267900   -0.0003648800    0.0001687700