
     Program PWSCF v.7.3.1 starts on 22Jan2025 at 21:17:47 

     This program is part of the open-source Quantum ESPRESSO suite
     for quantum simulation of materials; please cite
         "P. Giannozzi et al., J. Phys.:Condens. Matter 21 395502 (2009);
         "P. Giannozzi et al., J. Phys.:Condens. Matter 29 465901 (2017);
         "P. Giannozzi et al., J. Chem. Phys. 152 154105 (2020);
          URL http://www.quantum-espresso.org", 
     in publications or presentations arising from this work. More details at
     http://www.quantum-espresso.org/quote

     Parallel version (MPI), running on     6 processors

     MPI processes distributed on     1 nodes
     1615 MiB available memory on the printing compute node when the environment starts

     Reading input from vc_relax.in

     Current dimensions of program PWSCF are:
     Max number of different atomic species (ntypx) = 10
     Max number of k-points (npk) =  40000
     Max angular momentum in pseudopotentials (lmaxx) =  4
     file Mn.pbe-spn-kjpaw_psl.0.3.1.UPF: wavefunction(s)  3P 3D renormalized
     file Mn.pbe-spn-kjpaw_psl.0.3.1.UPF: wavefunction(s)  3P 3D renormalized
     file Mn.pbe-spn-kjpaw_psl.0.3.1.UPF: wavefunction(s)  3P 3D renormalized
     file Mn.pbe-spn-kjpaw_psl.0.3.1.UPF: wavefunction(s)  3P 3D renormalized
     file S.pbe-n-kjpaw_psl.1.0.0.UPF: wavefunction(s)  3S 3P renormalized

     R & G space division:  proc/nbgrp/npool/nimage =       6
     Subspace diagonalization in iterative solution of the eigenvalue problem:
     a serial algorithm will be used


     Parallelization info
     --------------------
     sticks:   dense  smooth     PW     G-vecs:    dense   smooth      PW
     Min         374     300     92                 5900     4227     706
     Max         375     301     93                 5902     4229     707
     Sum        2245    1801    555                35405    25365    4237

     Using Slab Decomposition



     bravais-lattice index     =            0
     lattice parameter (alat)  =      14.7866  a.u.
     unit-cell volume          =    1143.0296 (a.u.)^3
     number of atoms/cell      =            8
     number of atomic types    =            5
     number of electrons       =        84.00
     number of Kohn-Sham states=           50
     kinetic-energy cutoff     =      30.0000  Ry
     charge density cutoff     =     150.0000  Ry
     scf convergence threshold =      1.0E-10
     mixing beta               =       0.7000
     number of iterations used =            8  plain     mixing
     energy convergence thresh.=      1.0E-05
     force convergence thresh. =      1.0E-04
     press convergence thresh. =      5.0E-01
     Exchange-correlation= SLA  PW   PBX  PBC
                           (   1   4   3   4   0   0   0)
     nstep                     =           50


     celldm(1)=  14.786571  celldm(2)=   0.000000  celldm(3)=   0.000000
     celldm(4)=   0.000000  celldm(5)=   0.000000  celldm(6)=   0.000000

     crystal axes: (cart. coord. in units of alat)
               a(1) = (   1.000000   0.000000   0.000000 )  
               a(2) = (   0.500000   0.866025   0.000000 )  
               a(3) = (   0.250000   0.144338   0.408248 )  

     reciprocal axes: (cart. coord. in units 2 pi/alat)
               b(1) = (  1.000000 -0.577350 -0.408248 )  
               b(2) = (  0.000000  1.154700 -0.408248 )  
               b(3) = (  0.000000  0.000000  2.449490 )  


     PseudoPot. # 1 for Mn read from file:
     ./../../../pseudos/Mn.pbe-spn-kjpaw_psl.0.3.1.UPF
     MD5 check sum: ba19e6d7ccbc12830efad05ba8577d9c
     Pseudo is Projector augmented-wave + core cor, Zval = 15.0
     Generated using &quot;atomic&quot; code by A. Dal Corso  v.6.2.2
     Shape of augmentation charge: PSQ
     Using radial grid of 1187 points,  6 beta functions with: 
                l(1) =   0
                l(2) =   0
                l(3) =   1
                l(4) =   1
                l(5) =   2
                l(6) =   2
     Q(r) pseudized with 0 coefficients 


     PseudoPot. # 2 for Mn read from file:
     ./../../../pseudos/Mn.pbe-spn-kjpaw_psl.0.3.1.UPF
     MD5 check sum: ba19e6d7ccbc12830efad05ba8577d9c
     Pseudo is Projector augmented-wave + core cor, Zval = 15.0
     Generated using &quot;atomic&quot; code by A. Dal Corso  v.6.2.2
     Shape of augmentation charge: PSQ
     Using radial grid of 1187 points,  6 beta functions with: 
                l(1) =   0
                l(2) =   0
                l(3) =   1
                l(4) =   1
                l(5) =   2
                l(6) =   2
     Q(r) pseudized with 0 coefficients 


     PseudoPot. # 3 for Mn read from file:
     ./../../../pseudos/Mn.pbe-spn-kjpaw_psl.0.3.1.UPF
     MD5 check sum: ba19e6d7ccbc12830efad05ba8577d9c
     Pseudo is Projector augmented-wave + core cor, Zval = 15.0
     Generated using &quot;atomic&quot; code by A. Dal Corso  v.6.2.2
     Shape of augmentation charge: PSQ
     Using radial grid of 1187 points,  6 beta functions with: 
                l(1) =   0
                l(2) =   0
                l(3) =   1
                l(4) =   1
                l(5) =   2
                l(6) =   2
     Q(r) pseudized with 0 coefficients 


     PseudoPot. # 4 for Mn read from file:
     ./../../../pseudos/Mn.pbe-spn-kjpaw_psl.0.3.1.UPF
     MD5 check sum: ba19e6d7ccbc12830efad05ba8577d9c
     Pseudo is Projector augmented-wave + core cor, Zval = 15.0
     Generated using &quot;atomic&quot; code by A. Dal Corso  v.6.2.2
     Shape of augmentation charge: PSQ
     Using radial grid of 1187 points,  6 beta functions with: 
                l(1) =   0
                l(2) =   0
                l(3) =   1
                l(4) =   1
                l(5) =   2
                l(6) =   2
     Q(r) pseudized with 0 coefficients 


     PseudoPot. # 5 for S  read from file:
     ./../../../pseudos/S.pbe-n-kjpaw_psl.1.0.0.UPF
     MD5 check sum: fb45dfebcf3e72a4e1bd4a866ec2e262
     Pseudo is Projector augmented-wave + core cor, Zval =  6.0
     Generated using &quot;atomic&quot; code by A. Dal Corso  v.6.3
     Shape of augmentation charge: PSQ
     Using radial grid of 1151 points,  6 beta functions with: 
                l(1) =   0
                l(2) =   0
                l(3) =   1
                l(4) =   1
                l(5) =   2
                l(6) =   2
     Q(r) pseudized with 0 coefficients 


     atomic species   valence    mass     pseudopotential
     Mn1              15.00    54.93800     Mn( 1.00)
     Mn2              15.00    54.93800     Mn( 1.00)
     Mn3              15.00    54.93800     Mn( 1.00)
     Mn4              15.00    54.93800     Mn( 1.00)
     S                 6.00    32.06500     S ( 1.00)

     Starting magnetic structure 
     atomic species   magnetization
     Mn1             0.200
     Mn2             0.200
     Mn3             0.200
     Mn4             0.200
     S               0.000

     No symmetry found


                                    s                        frac. trans.

      isym =  1     identity                                     

 cryst.   s( 1) = (     1          0          0      )
                  (     0          1          0      )
                  (     0          0          1      )

 cart.    s( 1) = (  1.0000000  0.0000000  0.0000000 )
                  (  0.0000000  1.0000000  0.0000000 )
                  (  0.0000000  0.0000000  1.0000000 )


   Cartesian axes

     site n.     atom                  positions (alat units)
         1        Mn1    tau(   1) = (   0.7488520   0.4324281   0.3078856  )
         2        Mn2    tau(   2) = (   0.9988442   0.8654359   0.3078921  )
         3        Mn3    tau(   3) = (   1.2488431   0.4324243   0.3078924  )
         4        Mn4    tau(   4) = (   1.4988508   0.8654411   0.3078863  )
         5        S      tau(   5) = (   0.2511523   0.1449243   0.4065456  )
         6        S      tau(   6) = (   0.5011523   0.5779371   0.4065453  )
         7        S      tau(   7) = (   0.7511525   0.1449242   0.4065454  )
         8        S      tau(   8) = (   1.0011524   0.5779370   0.4065455  )

   Crystallographic axes

     site n.     atom                  positions (cryst. coord.)
         1        Mn1    tau(   1) = (  0.3734958  0.3736312  0.7541625  )
         2        Mn2    tau(   2) = (  0.3734882  0.8736229  0.7541784  )
         3        Mn3    tau(   3) = (  0.8734863  0.3736240  0.7541792  )
         4        Mn4    tau(   4) = (  0.8734942  0.8736312  0.7541643  )
         5        S      tau(   5) = (  0.0015087  0.0013726  0.9958292  )
         6        S      tau(   6) = (  0.0015089  0.5013728  0.9958286  )
         7        S      tau(   7) = (  0.5015090  0.0013727  0.9958286  )
         8        S      tau(   8) = (  0.5015088  0.5013726  0.9958291  )

     number of k points=    23  Gaussian smearing, width (Ry)=  0.0100
                       cart. coord. in units 2pi/alat
        k(    1) = (   0.0000000   0.0000000   0.0000000), wk =   0.0222222
        k(    2) = (   0.0000000   0.0000000   0.4898979), wk =   0.0444444
        k(    3) = (   0.0000000   0.0000000   0.9797958), wk =   0.0444444
        k(    4) = (   0.0000000   0.3849002  -0.1360827), wk =   0.0444444
        k(    5) = (   0.0000000   0.3849002   0.3538152), wk =   0.0444444
        k(    6) = (   0.0000000   0.3849002   0.8437131), wk =   0.0444444
        k(    7) = (   0.0000000   0.3849002  -1.1158786), wk =   0.0444444
        k(    8) = (   0.0000000   0.3849002  -0.6259807), wk =   0.0444444
        k(    9) = (   0.3333333   0.1924501  -0.2721655), wk =   0.0444444
        k(   10) = (   0.3333333   0.1924501   0.2177324), wk =   0.0444444
        k(   11) = (   0.3333333   0.1924501   0.7076304), wk =   0.0444444
        k(   12) = (   0.3333333   0.1924501  -1.2519613), wk =   0.0444444
        k(   13) = (   0.3333333   0.1924501  -0.7620634), wk =   0.0444444
        k(   14) = (   0.3333333  -0.5773502   0.0000000), wk =   0.0444444
        k(   15) = (   0.3333333  -0.5773502   0.4898979), wk =   0.0444444
        k(   16) = (   0.3333333  -0.5773502   0.9797959), wk =   0.0444444
        k(   17) = (  -0.3333333   0.1924501   0.1360827), wk =   0.0444444
        k(   18) = (  -0.3333333   0.1924501  -0.3538152), wk =   0.0444444
        k(   19) = (  -0.3333333   0.1924501  -0.8437131), wk =   0.0444444
        k(   20) = (  -0.3333333   0.1924501   1.1158786), wk =   0.0444444
        k(   21) = (  -0.3333333   0.1924501   0.6259807), wk =   0.0444444
        k(   22) = (   0.3333333  -0.5773502  -0.4898979), wk =   0.0444444
        k(   23) = (   0.3333333  -0.5773502  -0.9797958), wk =   0.0444444

                       cryst. coord.
        k(    1) = (   0.0000000   0.0000000   0.0000000), wk =   0.0222222
        k(    2) = (   0.0000000   0.0000000   0.2000000), wk =   0.0444444
        k(    3) = (   0.0000000   0.0000000   0.4000000), wk =   0.0444444
        k(    4) = (   0.0000000   0.3333333   0.0000000), wk =   0.0444444
        k(    5) = (   0.0000000   0.3333333   0.2000000), wk =   0.0444444
        k(    6) = (   0.0000000   0.3333333   0.4000000), wk =   0.0444444
        k(    7) = (   0.0000000   0.3333333  -0.4000000), wk =   0.0444444
        k(    8) = (   0.0000000   0.3333333  -0.2000000), wk =   0.0444444
        k(    9) = (   0.3333333   0.3333333   0.0000000), wk =   0.0444444
        k(   10) = (   0.3333333   0.3333333   0.2000000), wk =   0.0444444
        k(   11) = (   0.3333333   0.3333333   0.4000000), wk =   0.0444444
        k(   12) = (   0.3333333   0.3333333  -0.4000000), wk =   0.0444444
        k(   13) = (   0.3333333   0.3333333  -0.2000000), wk =   0.0444444
        k(   14) = (   0.3333333  -0.3333333   0.0000000), wk =   0.0444444
        k(   15) = (   0.3333333  -0.3333333   0.2000000), wk =   0.0444444
        k(   16) = (   0.3333333  -0.3333333   0.4000000), wk =   0.0444444
        k(   17) = (  -0.3333333   0.0000000  -0.0000000), wk =   0.0444444
        k(   18) = (  -0.3333333   0.0000000  -0.2000000), wk =   0.0444444
        k(   19) = (  -0.3333333   0.0000000  -0.4000000), wk =   0.0444444
        k(   20) = (  -0.3333333   0.0000000   0.4000000), wk =   0.0444444
        k(   21) = (  -0.3333333   0.0000000   0.2000000), wk =   0.0444444
        k(   22) = (   0.3333333  -0.3333333  -0.2000000), wk =   0.0444444
        k(   23) = (   0.3333333  -0.3333333  -0.4000000), wk =   0.0444444

     Dense  grid:    35405 G-vectors     FFT dimensions: (  60,  60,  30)

     Smooth grid:    25365 G-vectors     FFT dimensions: (  54,  54,  25)

     Dynamical RAM for                 wfc:       0.40 MB

     Dynamical RAM for     wfc (w. buffer):      18.93 MB

     Dynamical RAM for           str. fact:       0.45 MB

     Dynamical RAM for           local pot:       0.00 MB

     Dynamical RAM for          nlocal pot:       1.16 MB

     Dynamical RAM for                qrad:       9.84 MB

     Dynamical RAM for          rho,v,vnew:       1.36 MB

     Dynamical RAM for               rhoin:       0.45 MB

     Dynamical RAM for            rho*nmix:       2.88 MB

     Dynamical RAM for           G-vectors:       0.37 MB

     Dynamical RAM for          h,s,v(r/c):       0.46 MB

     Dynamical RAM for          <psi|beta>:       0.11 MB

     Dynamical RAM for                 psi:       0.81 MB

     Dynamical RAM for                hpsi:       0.81 MB

     Dynamical RAM for                spsi:       0.81 MB

     Dynamical RAM for      wfcinit/wfcrot:       0.97 MB

     Dynamical RAM for           addusdens:      17.20 MB

     Dynamical RAM for          addusforce:      17.77 MB

     Dynamical RAM for         addusstress:      18.24 MB

     Estimated static dynamical RAM per process >      33.94 MB

     Estimated max dynamical RAM per process >      55.06 MB

     Estimated total dynamical RAM >     330.34 MB

     Check: negative core charge=   -0.000237
     Generating pointlists ...
     new r_m :   0.1253 (alat units)  1.8527 (a.u.) for type    1
     new r_m :   0.1253 (alat units)  1.8527 (a.u.) for type    2
     new r_m :   0.1253 (alat units)  1.8526 (a.u.) for type    3
     new r_m :   0.1253 (alat units)  1.8527 (a.u.) for type    4
     new r_m :   0.1253 (alat units)  1.8526 (a.u.) for type    5

     Initial potential from superposition of free atoms

     starting charge      83.9979, renormalised to      84.0000
     Starting wfcs are   56 randomized atomic wfcs
     Checking if some PAW data can be deallocated... 
       PAW data deallocated on    5 nodes for type:  1
       PAW data deallocated on    5 nodes for type:  2
       PAW data deallocated on    5 nodes for type:  3
       PAW data deallocated on    5 nodes for type:  4
       PAW data deallocated on    2 nodes for type:  5

     total cpu time spent up to now is        5.4 secs

     Self-consistent Calculation

     iteration #  1     ecut=    30.00 Ry     beta= 0.70
     Davidson diagonalization with overlap

---- Real-time Memory Report at c_bands before calling an iterative solver
            79 MiB given to the printing process from OS
             0 MiB allocation reported by mallinfo(arena+hblkhd)
          1245 MiB available memory on the node where the printing process lives
------------------
     ethr =  1.00E-02,  avg # of iterations =  2.2

     Threshold (ethr) on eigenvalues was too large:
     Diagonalizing with lowered threshold

     Davidson diagonalization with overlap

---- Real-time Memory Report at c_bands before calling an iterative solver
            95 MiB given to the printing process from OS
             0 MiB allocation reported by mallinfo(arena+hblkhd)
          1160 MiB available memory on the node where the printing process lives
------------------
     ethr =  2.93E-04,  avg # of iterations =  4.1

     total cpu time spent up to now is       26.0 secs

     total energy              =   -1410.90904221 Ry
     estimated scf accuracy    <       0.20462646 Ry

     total magnetization       =    15.37 Bohr mag/cell
     absolute magnetization    =    15.37 Bohr mag/cell

     iteration #  2     ecut=    30.00 Ry     beta= 0.70
     Davidson diagonalization with overlap

---- Real-time Memory Report at c_bands before calling an iterative solver
            98 MiB given to the printing process from OS
             0 MiB allocation reported by mallinfo(arena+hblkhd)
          1106 MiB available memory on the node where the printing process lives
------------------
     ethr =  2.44E-04,  avg # of iterations =  2.3

     total cpu time spent up to now is       36.3 secs

     total energy              =   -1410.95846852 Ry
     estimated scf accuracy    <       0.02335514 Ry

     total magnetization       =    15.90 Bohr mag/cell
     absolute magnetization    =    15.90 Bohr mag/cell

     iteration #  3     ecut=    30.00 Ry     beta= 0.70
     Davidson diagonalization with overlap

---- Real-time Memory Report at c_bands before calling an iterative solver
            99 MiB given to the printing process from OS
             0 MiB allocation reported by mallinfo(arena+hblkhd)
          1141 MiB available memory on the node where the printing process lives
------------------
     ethr =  2.78E-05,  avg # of iterations =  8.7

     total cpu time spent up to now is       52.2 secs

     total energy              =   -1410.93332197 Ry
     estimated scf accuracy    <       0.35974275 Ry

     total magnetization       =    15.95 Bohr mag/cell
     absolute magnetization    =    16.01 Bohr mag/cell

     iteration #  4     ecut=    30.00 Ry     beta= 0.70
     Davidson diagonalization with overlap

---- Real-time Memory Report at c_bands before calling an iterative solver
           100 MiB given to the printing process from OS
             0 MiB allocation reported by mallinfo(arena+hblkhd)
          1126 MiB available memory on the node where the printing process lives
------------------
     c_bands:  1 eigenvalues not converged
     ethr =  2.78E-05,  avg # of iterations = 10.7

     total cpu time spent up to now is       68.4 secs

     total energy              =   -1410.95998011 Ry
     estimated scf accuracy    <       0.18881817 Ry

     total magnetization       =    15.96 Bohr mag/cell
     absolute magnetization    =    16.01 Bohr mag/cell

     iteration #  5     ecut=    30.00 Ry     beta= 0.70
     Davidson diagonalization with overlap

---- Real-time Memory Report at c_bands before calling an iterative solver
           100 MiB given to the printing process from OS
             0 MiB allocation reported by mallinfo(arena+hblkhd)
          1124 MiB available memory on the node where the printing process lives
------------------
     ethr =  2.78E-05,  avg # of iterations =  7.4

     total cpu time spent up to now is       83.1 secs

     total energy              =   -1410.96493385 Ry
     estimated scf accuracy    <       0.03989506 Ry

     total magnetization       =    15.96 Bohr mag/cell
     absolute magnetization    =    16.01 Bohr mag/cell

     iteration #  6     ecut=    30.00 Ry     beta= 0.70
     Davidson diagonalization with overlap

---- Real-time Memory Report at c_bands before calling an iterative solver
           100 MiB given to the printing process from OS
             0 MiB allocation reported by mallinfo(arena+hblkhd)
          1035 MiB available memory on the node where the printing process lives
------------------
     ethr =  2.78E-05,  avg # of iterations =  8.0

     total cpu time spent up to now is       97.4 secs

     total energy              =   -1410.96441334 Ry
     estimated scf accuracy    <       0.14970695 Ry

     total magnetization       =    15.96 Bohr mag/cell
     absolute magnetization    =    16.04 Bohr mag/cell

     iteration #  7     ecut=    30.00 Ry     beta= 0.70
     Davidson diagonalization with overlap

---- Real-time Memory Report at c_bands before calling an iterative solver
           100 MiB given to the printing process from OS
             0 MiB allocation reported by mallinfo(arena+hblkhd)
          1014 MiB available memory on the node where the printing process lives
------------------
     ethr =  2.78E-05,  avg # of iterations =  5.9

     total cpu time spent up to now is      108.7 secs

     total energy              =   -1410.97097799 Ry
     estimated scf accuracy    <       0.00278204 Ry

     total magnetization       =    15.96 Bohr mag/cell
     absolute magnetization    =    16.02 Bohr mag/cell

     iteration #  8     ecut=    30.00 Ry     beta= 0.70
     Davidson diagonalization with overlap

---- Real-time Memory Report at c_bands before calling an iterative solver
           101 MiB given to the printing process from OS
             0 MiB allocation reported by mallinfo(arena+hblkhd)
          1450 MiB available memory on the node where the printing process lives
------------------
     c_bands:  1 eigenvalues not converged
     ethr =  3.31E-06,  avg # of iterations =  8.5

     total cpu time spent up to now is      122.2 secs

     total energy              =   -1410.97129026 Ry
     estimated scf accuracy    <       0.00975983 Ry

     total magnetization       =    15.96 Bohr mag/cell
     absolute magnetization    =    16.02 Bohr mag/cell

     iteration #  9     ecut=    30.00 Ry     beta= 0.70
     Davidson diagonalization with overlap

---- Real-time Memory Report at c_bands before calling an iterative solver
           101 MiB given to the printing process from OS
             0 MiB allocation reported by mallinfo(arena+hblkhd)
          1598 MiB available memory on the node where the printing process lives
------------------
     ethr =  3.31E-06,  avg # of iterations =  5.5

     total cpu time spent up to now is      131.3 secs

     total energy              =   -1410.97180548 Ry
     estimated scf accuracy    <       0.00011759 Ry

     total magnetization       =    15.96 Bohr mag/cell
     absolute magnetization    =    16.04 Bohr mag/cell

     iteration # 10     ecut=    30.00 Ry     beta= 0.70
     Davidson diagonalization with overlap

---- Real-time Memory Report at c_bands before calling an iterative solver
           101 MiB given to the printing process from OS
             0 MiB allocation reported by mallinfo(arena+hblkhd)
          1598 MiB available memory on the node where the printing process lives
------------------
     ethr =  1.40E-07,  avg # of iterations =  7.1

     total cpu time spent up to now is      143.1 secs

     total energy              =   -1410.97184654 Ry
     estimated scf accuracy    <       0.00003701 Ry

     total magnetization       =    15.96 Bohr mag/cell
     absolute magnetization    =    16.04 Bohr mag/cell

     iteration # 11     ecut=    30.00 Ry     beta= 0.70
     Davidson diagonalization with overlap

---- Real-time Memory Report at c_bands before calling an iterative solver
           101 MiB given to the printing process from OS
             0 MiB allocation reported by mallinfo(arena+hblkhd)
          1607 MiB available memory on the node where the printing process lives
------------------
     ethr =  4.41E-08,  avg # of iterations =  2.8

     total cpu time spent up to now is      152.1 secs

     total energy              =   -1410.97185213 Ry
     estimated scf accuracy    <       0.00000445 Ry

     total magnetization       =    15.96 Bohr mag/cell
     absolute magnetization    =    16.04 Bohr mag/cell

     iteration # 12     ecut=    30.00 Ry     beta= 0.70
     Davidson diagonalization with overlap

---- Real-time Memory Report at c_bands before calling an iterative solver
           101 MiB given to the printing process from OS
             0 MiB allocation reported by mallinfo(arena+hblkhd)
          1610 MiB available memory on the node where the printing process lives
------------------
     c_bands:  1 eigenvalues not converged
     c_bands:  1 eigenvalues not converged
     c_bands:  1 eigenvalues not converged
     ethr =  5.30E-09,  avg # of iterations =  7.7

     total cpu time spent up to now is      164.6 secs

     total energy              =   -1410.97185417 Ry
     estimated scf accuracy    <       0.00000342 Ry

     total magnetization       =    15.96 Bohr mag/cell
     absolute magnetization    =    16.05 Bohr mag/cell

     iteration # 13     ecut=    30.00 Ry     beta= 0.70
     Davidson diagonalization with overlap

---- Real-time Memory Report at c_bands before calling an iterative solver
           101 MiB given to the printing process from OS
             0 MiB allocation reported by mallinfo(arena+hblkhd)
          1612 MiB available memory on the node where the printing process lives
------------------
     c_bands:  1 eigenvalues not converged
     ethr =  4.07E-09,  avg # of iterations =  1.8

     total cpu time spent up to now is      172.1 secs

     total energy              =   -1410.97185485 Ry
     estimated scf accuracy    <       0.00000384 Ry

     total magnetization       =    15.96 Bohr mag/cell
     absolute magnetization    =    16.05 Bohr mag/cell

     iteration # 14     ecut=    30.00 Ry     beta= 0.70
     Davidson diagonalization with overlap

---- Real-time Memory Report at c_bands before calling an iterative solver
           101 MiB given to the printing process from OS
             0 MiB allocation reported by mallinfo(arena+hblkhd)
          1615 MiB available memory on the node where the printing process lives
------------------
     ethr =  4.07E-09,  avg # of iterations =  1.1

     total cpu time spent up to now is      179.4 secs

     total energy              =   -1410.97185485 Ry
     estimated scf accuracy    <       0.00000436 Ry

     total magnetization       =    15.96 Bohr mag/cell
     absolute magnetization    =    16.05 Bohr mag/cell

     iteration # 15     ecut=    30.00 Ry     beta= 0.70
     Davidson diagonalization with overlap

---- Real-time Memory Report at c_bands before calling an iterative solver
           101 MiB given to the printing process from OS
             0 MiB allocation reported by mallinfo(arena+hblkhd)
          1613 MiB available memory on the node where the printing process lives
------------------
     ethr =  4.07E-09,  avg # of iterations =  1.0

     total cpu time spent up to now is      186.7 secs

     total energy              =   -1410.97185496 Ry
     estimated scf accuracy    <       0.00000318 Ry

     total magnetization       =    15.96 Bohr mag/cell
     absolute magnetization    =    16.05 Bohr mag/cell

     iteration # 16     ecut=    30.00 Ry     beta= 0.70
     Davidson diagonalization with overlap

---- Real-time Memory Report at c_bands before calling an iterative solver
           101 MiB given to the printing process from OS
             0 MiB allocation reported by mallinfo(arena+hblkhd)
          1613 MiB available memory on the node where the printing process lives
------------------
     ethr =  3.78E-09,  avg # of iterations =  1.0

     total cpu time spent up to now is      194.0 secs

     total energy              =   -1410.97185485 Ry
     estimated scf accuracy    <       0.00000140 Ry

     total magnetization       =    15.96 Bohr mag/cell
     absolute magnetization    =    16.05 Bohr mag/cell

     iteration # 17     ecut=    30.00 Ry     beta= 0.70
     Davidson diagonalization with overlap

---- Real-time Memory Report at c_bands before calling an iterative solver
           101 MiB given to the printing process from OS
             0 MiB allocation reported by mallinfo(arena+hblkhd)
          1618 MiB available memory on the node where the printing process lives
------------------
     ethr =  1.67E-09,  avg # of iterations =  4.9

     total cpu time spent up to now is      203.7 secs

     total energy              =   -1410.97185541 Ry
     estimated scf accuracy    <       0.00000030 Ry

     total magnetization       =    15.96 Bohr mag/cell
     absolute magnetization    =    16.05 Bohr mag/cell

     iteration # 18     ecut=    30.00 Ry     beta= 0.70
     Davidson diagonalization with overlap

---- Real-time Memory Report at c_bands before calling an iterative solver
           101 MiB given to the printing process from OS
             0 MiB allocation reported by mallinfo(arena+hblkhd)
          1618 MiB available memory on the node where the printing process lives
------------------
     c_bands:  1 eigenvalues not converged
     ethr =  3.59E-10,  avg # of iterations =  5.5

     total cpu time spent up to now is      214.2 secs

     total energy              =   -1410.97185549 Ry
     estimated scf accuracy    <       0.00000029 Ry

     total magnetization       =    15.96 Bohr mag/cell
     absolute magnetization    =    16.05 Bohr mag/cell

     iteration # 19     ecut=    30.00 Ry     beta= 0.70
     Davidson diagonalization with overlap

---- Real-time Memory Report at c_bands before calling an iterative solver
           101 MiB given to the printing process from OS
             0 MiB allocation reported by mallinfo(arena+hblkhd)
          1618 MiB available memory on the node where the printing process lives
------------------
     ethr =  3.46E-10,  avg # of iterations =  5.5

     total cpu time spent up to now is      223.6 secs

     total energy              =   -1410.97185560 Ry
     estimated scf accuracy    <       0.00000085 Ry

     total magnetization       =    15.96 Bohr mag/cell
     absolute magnetization    =    16.05 Bohr mag/cell

     iteration # 20     ecut=    30.00 Ry     beta= 0.70
     Davidson diagonalization with overlap

---- Real-time Memory Report at c_bands before calling an iterative solver
           101 MiB given to the printing process from OS
             0 MiB allocation reported by mallinfo(arena+hblkhd)
          1618 MiB available memory on the node where the printing process lives
------------------
     ethr =  3.46E-10,  avg # of iterations =  2.8

     total cpu time spent up to now is      231.6 secs

     total energy              =   -1410.97185563 Ry
     estimated scf accuracy    <       0.00000045 Ry

     total magnetization       =    15.96 Bohr mag/cell
     absolute magnetization    =    16.05 Bohr mag/cell

     iteration # 21     ecut=    30.00 Ry     beta= 0.70
     Davidson diagonalization with overlap

---- Real-time Memory Report at c_bands before calling an iterative solver
           101 MiB given to the printing process from OS
             0 MiB allocation reported by mallinfo(arena+hblkhd)
          1620 MiB available memory on the node where the printing process lives
------------------
     ethr =  3.46E-10,  avg # of iterations =  1.0

     total cpu time spent up to now is      238.9 secs

     total energy              =   -1410.97185563 Ry
     estimated scf accuracy    <       0.00000041 Ry

     total magnetization       =    15.96 Bohr mag/cell
     absolute magnetization    =    16.05 Bohr mag/cell

     iteration # 22     ecut=    30.00 Ry     beta= 0.70
     Davidson diagonalization with overlap

---- Real-time Memory Report at c_bands before calling an iterative solver
           101 MiB given to the printing process from OS
             0 MiB allocation reported by mallinfo(arena+hblkhd)
          1621 MiB available memory on the node where the printing process lives
------------------
     ethr =  3.46E-10,  avg # of iterations =  5.4

     total cpu time spent up to now is      248.4 secs

     total energy              =   -1410.97185568 Ry
     estimated scf accuracy    <       0.00000032 Ry

     total magnetization       =    15.96 Bohr mag/cell
     absolute magnetization    =    16.05 Bohr mag/cell

     iteration # 23     ecut=    30.00 Ry     beta= 0.70
     Davidson diagonalization with overlap

---- Real-time Memory Report at c_bands before calling an iterative solver
           101 MiB given to the printing process from OS
             0 MiB allocation reported by mallinfo(arena+hblkhd)
          1622 MiB available memory on the node where the printing process lives
------------------
     ethr =  3.46E-10,  avg # of iterations =  1.7

     total cpu time spent up to now is      256.1 secs

     total energy              =   -1410.97185571 Ry
     estimated scf accuracy    <       0.00000003 Ry

     total magnetization       =    15.96 Bohr mag/cell
     absolute magnetization    =    16.05 Bohr mag/cell

     iteration # 24     ecut=    30.00 Ry     beta= 0.70
     Davidson diagonalization with overlap

---- Real-time Memory Report at c_bands before calling an iterative solver
           101 MiB given to the printing process from OS
             0 MiB allocation reported by mallinfo(arena+hblkhd)
          1619 MiB available memory on the node where the printing process lives
------------------
     c_bands:  1 eigenvalues not converged
     ethr =  3.14E-11,  avg # of iterations =  7.1

     total cpu time spent up to now is      267.5 secs

     total energy              =   -1410.97185574 Ry
     estimated scf accuracy    <       0.00000004 Ry

     total magnetization       =    15.96 Bohr mag/cell
     absolute magnetization    =    16.05 Bohr mag/cell

     iteration # 25     ecut=    30.00 Ry     beta= 0.70
     Davidson diagonalization with overlap

---- Real-time Memory Report at c_bands before calling an iterative solver
           101 MiB given to the printing process from OS
             0 MiB allocation reported by mallinfo(arena+hblkhd)
          1619 MiB available memory on the node where the printing process lives
------------------
     ethr =  3.14E-11,  avg # of iterations =  2.3

     total cpu time spent up to now is      275.7 secs

     total energy              =   -1410.97185574 Ry
     estimated scf accuracy    <       0.00000001 Ry

     total magnetization       =    15.96 Bohr mag/cell
     absolute magnetization    =    16.05 Bohr mag/cell

     iteration # 26     ecut=    30.00 Ry     beta= 0.70
     Davidson diagonalization with overlap

---- Real-time Memory Report at c_bands before calling an iterative solver
           101 MiB given to the printing process from OS
             0 MiB allocation reported by mallinfo(arena+hblkhd)
          1618 MiB available memory on the node where the printing process lives
------------------
     c_bands:  1 eigenvalues not converged
     ethr =  1.29E-11,  avg # of iterations =  7.9

     total cpu time spent up to now is      290.5 secs

     total energy              =   -1410.97185576 Ry
     estimated scf accuracy    <          9.7E-09 Ry

     total magnetization       =    15.96 Bohr mag/cell
     absolute magnetization    =    16.05 Bohr mag/cell

     iteration # 27     ecut=    30.00 Ry     beta= 0.70
     Davidson diagonalization with overlap

---- Real-time Memory Report at c_bands before calling an iterative solver
           101 MiB given to the printing process from OS
             0 MiB allocation reported by mallinfo(arena+hblkhd)
          1515 MiB available memory on the node where the printing process lives
------------------
     ethr =  1.15E-11,  avg # of iterations =  4.0

     total cpu time spent up to now is      299.5 secs

     total energy              =   -1410.97185576 Ry
     estimated scf accuracy    <          1.7E-09 Ry

     total magnetization       =    15.96 Bohr mag/cell
     absolute magnetization    =    16.05 Bohr mag/cell

     iteration # 28     ecut=    30.00 Ry     beta= 0.70
     Davidson diagonalization with overlap

---- Real-time Memory Report at c_bands before calling an iterative solver
           101 MiB given to the printing process from OS
             0 MiB allocation reported by mallinfo(arena+hblkhd)
          1537 MiB available memory on the node where the printing process lives
------------------
     ethr =  1.97E-12,  avg # of iterations =  5.7

     total cpu time spent up to now is      310.4 secs

     total energy              =   -1410.97185576 Ry
     estimated scf accuracy    <          3.9E-09 Ry

     total magnetization       =    15.96 Bohr mag/cell
     absolute magnetization    =    16.05 Bohr mag/cell

     iteration # 29     ecut=    30.00 Ry     beta= 0.70
     Davidson diagonalization with overlap

---- Real-time Memory Report at c_bands before calling an iterative solver
           101 MiB given to the printing process from OS
             0 MiB allocation reported by mallinfo(arena+hblkhd)
          1528 MiB available memory on the node where the printing process lives
------------------
     c_bands:  1 eigenvalues not converged
     ethr =  1.97E-12,  avg # of iterations =  4.9

     total cpu time spent up to now is      320.1 secs

     total energy              =   -1410.97185576 Ry
     estimated scf accuracy    <          1.4E-09 Ry

     total magnetization       =    15.96 Bohr mag/cell
     absolute magnetization    =    16.05 Bohr mag/cell

     iteration # 30     ecut=    30.00 Ry     beta= 0.70
     Davidson diagonalization with overlap

---- Real-time Memory Report at c_bands before calling an iterative solver
           101 MiB given to the printing process from OS
             0 MiB allocation reported by mallinfo(arena+hblkhd)
          1540 MiB available memory on the node where the printing process lives
------------------
     ethr =  1.68E-12,  avg # of iterations =  4.3

     total cpu time spent up to now is      329.0 secs

     total energy              =   -1410.97185576 Ry
     estimated scf accuracy    <          1.3E-09 Ry

     total magnetization       =    15.96 Bohr mag/cell
     absolute magnetization    =    16.05 Bohr mag/cell

     iteration # 31     ecut=    30.00 Ry     beta= 0.70
     Davidson diagonalization with overlap

---- Real-time Memory Report at c_bands before calling an iterative solver
           101 MiB given to the printing process from OS
             0 MiB allocation reported by mallinfo(arena+hblkhd)
          1537 MiB available memory on the node where the printing process lives
------------------
     ethr =  1.57E-12,  avg # of iterations =  1.8

     total cpu time spent up to now is      337.0 secs

     total energy              =   -1410.97185576 Ry
     estimated scf accuracy    <          8.1E-10 Ry

     total magnetization       =    15.96 Bohr mag/cell
     absolute magnetization    =    16.05 Bohr mag/cell

     iteration # 32     ecut=    30.00 Ry     beta= 0.70
     Davidson diagonalization with overlap

---- Real-time Memory Report at c_bands before calling an iterative solver
           101 MiB given to the printing process from OS
             0 MiB allocation reported by mallinfo(arena+hblkhd)
          1530 MiB available memory on the node where the printing process lives
------------------
     ethr =  9.70E-13,  avg # of iterations =  5.5

     total cpu time spent up to now is      347.0 secs

     total energy              =   -1410.97185576 Ry
     estimated scf accuracy    <          9.6E-10 Ry

     total magnetization       =    15.96 Bohr mag/cell
     absolute magnetization    =    16.05 Bohr mag/cell

     iteration # 33     ecut=    30.00 Ry     beta= 0.70
     Davidson diagonalization with overlap

---- Real-time Memory Report at c_bands before calling an iterative solver
           101 MiB given to the printing process from OS
             0 MiB allocation reported by mallinfo(arena+hblkhd)
          1526 MiB available memory on the node where the printing process lives
------------------
     ethr =  9.70E-13,  avg # of iterations =  3.7

     total cpu time spent up to now is      355.7 secs

     total energy              =   -1410.97185576 Ry
     estimated scf accuracy    <          5.1E-10 Ry

     total magnetization       =    15.96 Bohr mag/cell
     absolute magnetization    =    16.05 Bohr mag/cell

     iteration # 34     ecut=    30.00 Ry     beta= 0.70
     Davidson diagonalization with overlap

---- Real-time Memory Report at c_bands before calling an iterative solver
           101 MiB given to the printing process from OS
             0 MiB allocation reported by mallinfo(arena+hblkhd)
          1519 MiB available memory on the node where the printing process lives
------------------
     ethr =  6.10E-13,  avg # of iterations =  4.0

     total cpu time spent up to now is      365.0 secs

     total energy              =   -1410.97185576 Ry
     estimated scf accuracy    <          2.9E-10 Ry

     total magnetization       =    15.96 Bohr mag/cell
     absolute magnetization    =    16.05 Bohr mag/cell

     iteration # 35     ecut=    30.00 Ry     beta= 0.70
     Davidson diagonalization with overlap

---- Real-time Memory Report at c_bands before calling an iterative solver
           101 MiB given to the printing process from OS
             0 MiB allocation reported by mallinfo(arena+hblkhd)
          1531 MiB available memory on the node where the printing process lives
------------------
     c_bands:  1 eigenvalues not converged
     ethr =  3.44E-13,  avg # of iterations =  5.6

     total cpu time spent up to now is      375.7 secs

     total energy              =   -1410.97185576 Ry
     estimated scf accuracy    <          3.3E-10 Ry

     total magnetization       =    15.96 Bohr mag/cell
     absolute magnetization    =    16.05 Bohr mag/cell

     iteration # 36     ecut=    30.00 Ry     beta= 0.70
     Davidson diagonalization with overlap

---- Real-time Memory Report at c_bands before calling an iterative solver
           101 MiB given to the printing process from OS
             0 MiB allocation reported by mallinfo(arena+hblkhd)
          1539 MiB available memory on the node where the printing process lives
------------------
     ethr =  3.44E-13,  avg # of iterations =  1.1

     total cpu time spent up to now is      383.4 secs

     total energy              =   -1410.97185576 Ry
     estimated scf accuracy    <          2.5E-10 Ry

     total magnetization       =    15.96 Bohr mag/cell
     absolute magnetization    =    16.05 Bohr mag/cell

     iteration # 37     ecut=    30.00 Ry     beta= 0.70
     Davidson diagonalization with overlap

---- Real-time Memory Report at c_bands before calling an iterative solver
           101 MiB given to the printing process from OS
             0 MiB allocation reported by mallinfo(arena+hblkhd)
          1545 MiB available memory on the node where the printing process lives
------------------
     ethr =  2.97E-13,  avg # of iterations =  2.3

     Magnetic moment per site  (integrated on atomic sphere of radius R)
     atom   1 (R=0.125)  charge= 12.8790  magn=  3.5303
     atom   2 (R=0.125)  charge= 12.8789  magn=  3.5304
     atom   3 (R=0.125)  charge= 12.8789  magn=  3.5304
     atom   4 (R=0.125)  charge= 12.8790  magn=  3.5303
     atom   5 (R=0.125)  charge=  4.0499  magn=  0.0022
     atom   6 (R=0.125)  charge=  4.0498  magn=  0.0021
     atom   7 (R=0.125)  charge=  4.0498  magn=  0.0021
     atom   8 (R=0.125)  charge=  4.0499  magn=  0.0022

     total cpu time spent up to now is      392.5 secs

     End of self-consistent calculation

 ------ SPIN UP ------------


          k = 0.0000 0.0000 0.0000 (  3203 PWs)   bands (ev):

   -74.2422 -74.2417 -74.2415 -74.2414 -42.9690 -42.9683 -42.9680 -42.9673
   -42.9658 -42.9655 -42.9646 -42.9636 -42.9623 -42.9609 -42.9608 -42.9602
    -6.3582  -5.6573  -5.6569  -5.4362   1.8071   1.9359   1.9373   2.9073
     2.9443   2.9948   3.1941   3.1965   3.1969   3.2005   3.5082   3.6396
     4.8473   4.8490   4.8770   5.0147   5.0148   5.0448   5.0474   5.1578
     5.2989   5.2998   5.4004   5.9221   6.0391   7.1930   7.1981   7.2351
     7.2394   8.2654

     occupation numbers 
     1.0000   1.0000   1.0000   1.0000   1.0000   1.0000   1.0000   1.0000
     1.0000   1.0000   1.0000   1.0000   1.0000   1.0000   1.0000   1.0000
     1.0000   1.0000   1.0000   1.0000   1.0000   1.0000   1.0000   1.0000
     1.0000   1.0000   1.0000   1.0000   1.0000   1.0000   1.0000   1.0000
     1.0000   1.0000   1.0000   1.0000   1.0000   1.0000   1.0000   1.0000
     1.0000   1.0000   1.0000   1.0000   1.0000   1.0000   1.0000   1.0000
     1.0000   0.0005

          k = 0.0000 0.0000 0.4899 (  3184 PWs)   bands (ev):

   -74.2418 -74.2417 -74.2416 -74.2413 -42.9685 -42.9684 -42.9683 -42.9682
   -42.9659 -42.9657 -42.9643 -42.9634 -42.9625 -42.9612 -42.9611 -42.9600
    -6.1370  -5.5865  -5.5862  -5.5198   2.0776   2.1421   2.1428   2.6115
     3.0073   3.0412   3.0458   3.0475   3.2443   3.2931   3.2956   3.3719
     4.8583   4.8846   4.8846   4.8868   4.8878   5.0284   5.0290   5.0973
     5.3792   5.3804   5.4096   6.2780   6.4819   6.5719   6.5733   6.7613
     6.7659   6.8749

     occupation numbers 
     1.0000   1.0000   1.0000   1.0000   1.0000   1.0000   1.0000   1.0000
     1.0000   1.0000   1.0000   1.0000   1.0000   1.0000   1.0000   1.0000
     1.0000   1.0000   1.0000   1.0000   1.0000   1.0000   1.0000   1.0000
     1.0000   1.0000   1.0000   1.0000   1.0000   1.0000   1.0000   1.0000
     1.0000   1.0000   1.0000   1.0000   1.0000   1.0000   1.0000   1.0000
     1.0000   1.0000   1.0000   1.0000   1.0000   1.0000   1.0000   1.0000
     1.0000   1.0000

          k = 0.0000 0.0000 0.9798 (  3151 PWs)   bands (ev):

   -74.2416 -74.2415 -74.2414 -74.2413 -42.9699 -42.9689 -42.9687 -42.9679
   -42.9656 -42.9653 -42.9639 -42.9637 -42.9628 -42.9613 -42.9612 -42.9604
    -5.7408  -5.6434  -5.4588  -5.4587   1.8983   1.8984   2.0395   2.0689
     3.0922   3.1048   3.1143   3.1767   3.4850   3.4869   3.5226   3.5250
     4.8477   4.8482   4.9800   4.9970   5.0133   5.0337   5.1821   5.1823
     5.3866   5.4043   5.4052   5.5732   6.0572   6.0601   6.1268   6.1314
     7.0701   7.1453

     occupation numbers 
     1.0000   1.0000   1.0000   1.0000   1.0000   1.0000   1.0000   1.0000
     1.0000   1.0000   1.0000   1.0000   1.0000   1.0000   1.0000   1.0000
     1.0000   1.0000   1.0000   1.0000   1.0000   1.0000   1.0000   1.0000
     1.0000   1.0000   1.0000   1.0000   1.0000   1.0000   1.0000   1.0000
     1.0000   1.0000   1.0000   1.0000   1.0000   1.0000   1.0000   1.0000
     1.0000   1.0000   1.0000   1.0000   1.0000   1.0000   1.0000   1.0000
     1.0000   1.0000

          k = 0.0000 0.3849-0.1361 (  3185 PWs)   bands (ev):

   -74.2418 -74.2418 -74.2415 -74.2414 -42.9687 -42.9682 -42.9680 -42.9672
   -42.9655 -42.9651 -42.9648 -42.9639 -42.9620 -42.9613 -42.9607 -42.9601
    -6.1975  -5.8497  -5.6060  -5.4960   2.0242   2.1205   2.1684   2.6529
     3.0245   3.0408   3.0740   3.1366   3.1554   3.2454   3.2915   3.5100
     4.8295   4.8766   4.8823   4.9013   4.9164   4.9231   5.0605   5.1265
     5.3941   5.4062   5.8751   6.1860   6.2705   6.7039   6.9014   7.1899
     7.4918   7.5103

     occupation numbers 
     1.0000   1.0000   1.0000   1.0000   1.0000   1.0000   1.0000   1.0000
     1.0000   1.0000   1.0000   1.0000   1.0000   1.0000   1.0000   1.0000
     1.0000   1.0000   1.0000   1.0000   1.0000   1.0000   1.0000   1.0000
     1.0000   1.0000   1.0000   1.0000   1.0000   1.0000   1.0000   1.0000
     1.0000   1.0000   1.0000   1.0000   1.0000   1.0000   1.0000   1.0000
     1.0000   1.0000   1.0000   1.0000   1.0000   1.0000   1.0000   1.0000
     1.0000   1.0000

          k = 0.0000 0.3849 0.3538 (  3165 PWs)   bands (ev):

   -74.2419 -74.2416 -74.2414 -74.2413 -42.9689 -42.9688 -42.9678 -42.9677
   -42.9653 -42.9651 -42.9647 -42.9639 -42.9621 -42.9615 -42.9608 -42.9604
    -6.1021  -5.6689  -5.6283  -5.4354   2.2453   2.2549   2.2690   2.5362
     2.9114   2.9710   2.9789   3.0729   3.0796   3.2559   3.2663   3.5565
     4.7668   4.8645   4.8819   4.9188   4.9509   5.0407   5.0411   5.0537
     5.2771   5.6114   5.6752   5.7515   6.3116   6.3884   6.4187   7.2149
     7.2381   7.2992

     occupation numbers 
     1.0000   1.0000   1.0000   1.0000   1.0000   1.0000   1.0000   1.0000
     1.0000   1.0000   1.0000   1.0000   1.0000   1.0000   1.0000   1.0000
     1.0000   1.0000   1.0000   1.0000   1.0000   1.0000   1.0000   1.0000
     1.0000   1.0000   1.0000   1.0000   1.0000   1.0000   1.0000   1.0000
     1.0000   1.0000   1.0000   1.0000   1.0000   1.0000   1.0000   1.0000
     1.0000   1.0000   1.0000   1.0000   1.0000   1.0000   1.0000   1.0000
     1.0000   1.0000

          k = 0.0000 0.3849 0.8437 (  3166 PWs)   bands (ev):

   -74.2416 -74.2415 -74.2415 -74.2414 -42.9693 -42.9693 -42.9685 -42.9684
   -42.9653 -42.9650 -42.9644 -42.9642 -42.9625 -42.9616 -42.9611 -42.9607
    -5.7393  -5.5712  -5.5397  -5.4664   2.1171   2.1974   2.2390   2.2822
     2.8490   3.0021   3.0665   3.1425   3.1797   3.3272   3.4013   3.4053
     4.8031   4.8268   4.8407   4.8974   5.0223   5.0346   5.0816   5.0890
     5.3893   5.4414   5.6479   5.8112   5.9512   6.1476   6.2709   6.5114
     6.6652   6.7787

     occupation numbers 
     1.0000   1.0000   1.0000   1.0000   1.0000   1.0000   1.0000   1.0000
     1.0000   1.0000   1.0000   1.0000   1.0000   1.0000   1.0000   1.0000
     1.0000   1.0000   1.0000   1.0000   1.0000   1.0000   1.0000   1.0000
     1.0000   1.0000   1.0000   1.0000   1.0000   1.0000   1.0000   1.0000
     1.0000   1.0000   1.0000   1.0000   1.0000   1.0000   1.0000   1.0000
     1.0000   1.0000   1.0000   1.0000   1.0000   1.0000   1.0000   1.0000
     1.0000   1.0000

          k = 0.0000 0.3849-1.1159 (  3158 PWs)   bands (ev):

   -74.2416 -74.2415 -74.2415 -74.2413 -42.9699 -42.9690 -42.9687 -42.9679
   -42.9651 -42.9649 -42.9644 -42.9642 -42.9624 -42.9617 -42.9611 -42.9606
    -5.6610  -5.6086  -5.5998  -5.4444   1.9718   2.0699   2.1563   2.1910
     2.9259   3.0074   3.2050   3.2127   3.2147   3.3844   3.3966   3.5404
     4.7296   4.9100   4.9226   4.9825   5.0254   5.0544   5.0756   5.1495
     5.3058   5.4342   5.5271   5.8575   5.9591   6.3054   6.3678   6.3963
     6.5697   6.7138

     occupation numbers 
     1.0000   1.0000   1.0000   1.0000   1.0000   1.0000   1.0000   1.0000
     1.0000   1.0000   1.0000   1.0000   1.0000   1.0000   1.0000   1.0000
     1.0000   1.0000   1.0000   1.0000   1.0000   1.0000   1.0000   1.0000
     1.0000   1.0000   1.0000   1.0000   1.0000   1.0000   1.0000   1.0000
     1.0000   1.0000   1.0000   1.0000   1.0000   1.0000   1.0000   1.0000
     1.0000   1.0000   1.0000   1.0000   1.0000   1.0000   1.0000   1.0000
     1.0000   1.0000

          k = 0.0000 0.3849-0.6260 (  3178 PWs)   bands (ev):

   -74.2418 -74.2417 -74.2415 -74.2414 -42.9688 -42.9687 -42.9680 -42.9678
   -42.9655 -42.9652 -42.9646 -42.9642 -42.9622 -42.9614 -42.9609 -42.9603
    -5.9123  -5.8354  -5.6377  -5.4701   2.2262   2.2593   2.3813   2.4417
     2.7493   2.9665   3.0061   3.1309   3.1908   3.2070   3.3194   3.4821
     4.7227   4.8106   4.8266   4.8312   5.0093   5.0273   5.0328   5.0719
     5.4046   5.7763   5.8466   6.1643   6.2803   6.3809   6.5403   6.8296
     6.9733   7.0582

     occupation numbers 
     1.0000   1.0000   1.0000   1.0000   1.0000   1.0000   1.0000   1.0000
     1.0000   1.0000   1.0000   1.0000   1.0000   1.0000   1.0000   1.0000
     1.0000   1.0000   1.0000   1.0000   1.0000   1.0000   1.0000   1.0000
     1.0000   1.0000   1.0000   1.0000   1.0000   1.0000   1.0000   1.0000
     1.0000   1.0000   1.0000   1.0000   1.0000   1.0000   1.0000   1.0000
     1.0000   1.0000   1.0000   1.0000   1.0000   1.0000   1.0000   1.0000
     1.0000   1.0000

          k = 0.3333 0.1925-0.2722 (  3186 PWs)   bands (ev):

   -74.2419 -74.2416 -74.2416 -74.2415 -42.9686 -42.9680 -42.9678 -42.9675
   -42.9658 -42.9655 -42.9643 -42.9637 -42.9618 -42.9610 -42.9609 -42.9606
    -6.1463  -5.6868  -5.6689  -5.6686   2.0248   2.2042   2.2053   2.5932
     3.0038   3.0054   3.0179   3.1067   3.2625   3.2647   3.2978   3.4056
     4.6733   4.7732   4.8947   4.8963   4.9241   5.0324   5.0326   5.0689
     5.6028   5.6042   6.2882   6.4835   6.4867   6.4888   6.5810   7.3186
     7.3206   7.4177

     occupation numbers 
     1.0000   1.0000   1.0000   1.0000   1.0000   1.0000   1.0000   1.0000
     1.0000   1.0000   1.0000   1.0000   1.0000   1.0000   1.0000   1.0000
     1.0000   1.0000   1.0000   1.0000   1.0000   1.0000   1.0000   1.0000
     1.0000   1.0000   1.0000   1.0000   1.0000   1.0000   1.0000   1.0000
     1.0000   1.0000   1.0000   1.0000   1.0000   1.0000   1.0000   1.0000
     1.0000   1.0000   1.0000   1.0000   1.0000   1.0000   1.0000   1.0000
     1.0000   1.0000

          k = 0.3333 0.1925 0.2177 (  3178 PWs)   bands (ev):

   -74.2419 -74.2416 -74.2415 -74.2414 -42.9693 -42.9685 -42.9683 -42.9673
   -42.9657 -42.9655 -42.9644 -42.9634 -42.9619 -42.9612 -42.9611 -42.9608
    -6.1738  -5.5840  -5.5837  -5.4790   2.0667   2.1451   2.1460   2.6587
     2.9990   3.0155   3.0180   3.0425   3.2539   3.2993   3.3016   3.3921
     4.8518   4.8544   4.9015   4.9158   4.9178   5.0319   5.0330   5.0862
     5.3558   5.3670   5.3681   6.0970   6.3960   6.5859   6.5877   6.8490
     6.8534   7.0778

     occupation numbers 
     1.0000   1.0000   1.0000   1.0000   1.0000   1.0000   1.0000   1.0000
     1.0000   1.0000   1.0000   1.0000   1.0000   1.0000   1.0000   1.0000
     1.0000   1.0000   1.0000   1.0000   1.0000   1.0000   1.0000   1.0000
     1.0000   1.0000   1.0000   1.0000   1.0000   1.0000   1.0000   1.0000
     1.0000   1.0000   1.0000   1.0000   1.0000   1.0000   1.0000   1.0000
     1.0000   1.0000   1.0000   1.0000   1.0000   1.0000   1.0000   1.0000
     1.0000   1.0000

          k = 0.3333 0.1925 0.7076 (  3164 PWs)   bands (ev):

   -74.2417 -74.2415 -74.2414 -74.2413 -42.9691 -42.9689 -42.9688 -42.9687
   -42.9656 -42.9654 -42.9641 -42.9636 -42.9622 -42.9615 -42.9614 -42.9611
    -5.8494  -5.5533  -5.4545  -5.4543   2.3585   2.4026   2.4029   2.4527
     2.7002   2.7936   2.7944   2.9660   3.1218   3.2757   3.5125   3.5133
     4.8094   4.8511   4.8513   4.9062   4.9345   5.0217   5.0232   5.0389
     5.3657   5.3661   5.6641   5.7871   5.7874   5.9771   6.1954   6.4726
     6.4743   6.7397

     occupation numbers 
     1.0000   1.0000   1.0000   1.0000   1.0000   1.0000   1.0000   1.0000
     1.0000   1.0000   1.0000   1.0000   1.0000   1.0000   1.0000   1.0000
     1.0000   1.0000   1.0000   1.0000   1.0000   1.0000   1.0000   1.0000
     1.0000   1.0000   1.0000   1.0000   1.0000   1.0000   1.0000   1.0000
     1.0000   1.0000   1.0000   1.0000   1.0000   1.0000   1.0000   1.0000
     1.0000   1.0000   1.0000   1.0000   1.0000   1.0000   1.0000   1.0000
     1.0000   1.0000

          k = 0.3333 0.1925-1.2520 (  3156 PWs)   bands (ev):

   -74.2416 -74.2415 -74.2414 -74.2413 -42.9700 -42.9690 -42.9688 -42.9679
   -42.9654 -42.9652 -42.9640 -42.9636 -42.9621 -42.9615 -42.9614 -42.9611
    -5.7955  -5.5959  -5.4570  -5.4569   2.0360   2.0363   2.1657   2.1675
     2.9502   3.1065   3.1273   3.2016   3.2590   3.2593   3.5270   3.5285
     4.8626   4.8634   4.8990   5.0015   5.0124   5.0271   5.1000   5.1004
     5.3306   5.3310   5.3706   5.7938   5.9604   5.9608   6.2869   6.2890
     6.6372   7.0798

     occupation numbers 
     1.0000   1.0000   1.0000   1.0000   1.0000   1.0000   1.0000   1.0000
     1.0000   1.0000   1.0000   1.0000   1.0000   1.0000   1.0000   1.0000
     1.0000   1.0000   1.0000   1.0000   1.0000   1.0000   1.0000   1.0000
     1.0000   1.0000   1.0000   1.0000   1.0000   1.0000   1.0000   1.0000
     1.0000   1.0000   1.0000   1.0000   1.0000   1.0000   1.0000   1.0000
     1.0000   1.0000   1.0000   1.0000   1.0000   1.0000   1.0000   1.0000
     1.0000   1.0000

          k = 0.3333 0.1925-0.7621 (  3171 PWs)   bands (ev):

   -74.2417 -74.2416 -74.2415 -74.2414 -42.9691 -42.9684 -42.9682 -42.9675
   -42.9657 -42.9654 -42.9640 -42.9637 -42.9620 -42.9612 -42.9611 -42.9608
    -5.8758  -5.7984  -5.5934  -5.5933   2.1603   2.1604   2.2302   2.2848
     3.1076   3.1076   3.1255   3.1289   3.1340   3.1454   3.3986   3.3993
     4.7992   4.8055   4.8142   4.8147   5.0153   5.0611   5.0657   5.0658
     5.6839   5.6845   6.0081   6.1144   6.1153   6.1760   6.7909   6.7913
     7.0854   7.1794

     occupation numbers 
     1.0000   1.0000   1.0000   1.0000   1.0000   1.0000   1.0000   1.0000
     1.0000   1.0000   1.0000   1.0000   1.0000   1.0000   1.0000   1.0000
     1.0000   1.0000   1.0000   1.0000   1.0000   1.0000   1.0000   1.0000
     1.0000   1.0000   1.0000   1.0000   1.0000   1.0000   1.0000   1.0000
     1.0000   1.0000   1.0000   1.0000   1.0000   1.0000   1.0000   1.0000
     1.0000   1.0000   1.0000   1.0000   1.0000   1.0000   1.0000   1.0000
     1.0000   1.0000

          k = 0.3333-0.5774 0.0000 (  3195 PWs)   bands (ev):

   -74.2418 -74.2418 -74.2417 -74.2415 -42.9684 -42.9682 -42.9680 -42.9675
   -42.9657 -42.9649 -42.9645 -42.9643 -42.9617 -42.9612 -42.9611 -42.9605
    -5.9728  -5.8597  -5.8594  -5.4889   2.2608   2.2616   2.3949   2.4686
     2.7249   3.0602   3.0941   3.0958   3.1515   3.2179   3.2200   3.4167
     4.7514   4.7524   4.7645   4.8180   4.9609   4.9825   5.0263   5.0279
     5.5881   5.8213   6.2523   6.2533   6.5727   6.6778   6.9395   7.0758
     7.0776   7.2644

     occupation numbers 
     1.0000   1.0000   1.0000   1.0000   1.0000   1.0000   1.0000   1.0000
     1.0000   1.0000   1.0000   1.0000   1.0000   1.0000   1.0000   1.0000
     1.0000   1.0000   1.0000   1.0000   1.0000   1.0000   1.0000   1.0000
     1.0000   1.0000   1.0000   1.0000   1.0000   1.0000   1.0000   1.0000
     1.0000   1.0000   1.0000   1.0000   1.0000   1.0000   1.0000   1.0000
     1.0000   1.0000   1.0000   1.0000   1.0000   1.0000   1.0000   1.0000
     1.0000   1.0000

          k = 0.3333-0.5774 0.4899 (  3179 PWs)   bands (ev):

   -74.2418 -74.2417 -74.2415 -74.2414 -42.9692 -42.9684 -42.9683 -42.9674
   -42.9654 -42.9649 -42.9646 -42.9642 -42.9619 -42.9613 -42.9612 -42.9607
    -5.9703  -5.8144  -5.5772  -5.4895   2.2232   2.2554   2.4123   2.4187
     2.7657   2.9431   3.0318   3.1273   3.1345   3.2194   3.3652   3.4377
     4.7453   4.8095   4.8286   4.8563   4.9811   5.0244   5.0400   5.0602
     5.4405   5.6721   5.9450   6.0319   6.1426   6.5608   6.6158   6.8459
     6.9222   6.9967

     occupation numbers 
     1.0000   1.0000   1.0000   1.0000   1.0000   1.0000   1.0000   1.0000
     1.0000   1.0000   1.0000   1.0000   1.0000   1.0000   1.0000   1.0000
     1.0000   1.0000   1.0000   1.0000   1.0000   1.0000   1.0000   1.0000
     1.0000   1.0000   1.0000   1.0000   1.0000   1.0000   1.0000   1.0000
     1.0000   1.0000   1.0000   1.0000   1.0000   1.0000   1.0000   1.0000
     1.0000   1.0000   1.0000   1.0000   1.0000   1.0000   1.0000   1.0000
     1.0000   1.0000

          k = 0.3333-0.5774 0.9798 (  3173 PWs)   bands (ev):

   -74.2417 -74.2416 -74.2415 -74.2414 -42.9695 -42.9693 -42.9684 -42.9684
   -42.9653 -42.9650 -42.9645 -42.9642 -42.9622 -42.9616 -42.9614 -42.9609
    -5.7686  -5.5418  -5.5169  -5.4914   2.2185   2.3078   2.3638   2.4446
     2.7301   2.7869   2.8722   3.0825   3.2263   3.3804   3.3859   3.3948
     4.7613   4.7939   4.8791   4.8872   4.9632   5.0230   5.0348   5.0896
     5.5048   5.5258   5.5894   5.8635   5.9684   5.9736   6.0850   6.6756
     6.6956   6.7131

     occupation numbers 
     1.0000   1.0000   1.0000   1.0000   1.0000   1.0000   1.0000   1.0000
     1.0000   1.0000   1.0000   1.0000   1.0000   1.0000   1.0000   1.0000
     1.0000   1.0000   1.0000   1.0000   1.0000   1.0000   1.0000   1.0000
     1.0000   1.0000   1.0000   1.0000   1.0000   1.0000   1.0000   1.0000
     1.0000   1.0000   1.0000   1.0000   1.0000   1.0000   1.0000   1.0000
     1.0000   1.0000   1.0000   1.0000   1.0000   1.0000   1.0000   1.0000
     1.0000   1.0000

          k =-0.3333 0.1925 0.1361 (  3185 PWs)   bands (ev):

   -74.2418 -74.2418 -74.2415 -74.2414 -42.9688 -42.9684 -42.9678 -42.9671
   -42.9654 -42.9652 -42.9648 -42.9639 -42.9620 -42.9612 -42.9608 -42.9602
    -6.1974  -5.8494  -5.6063  -5.4961   2.0244   2.1218   2.1671   2.6517
     3.0259   3.0384   3.0749   3.1385   3.1583   3.2442   3.2883   3.5086
     4.8316   4.8764   4.8816   4.9008   4.9176   4.9210   5.0628   5.1277
     5.3933   5.4057   5.8766   6.1860   6.2713   6.7067   6.9043   7.1928
     7.4870   7.5072

     occupation numbers 
     1.0000   1.0000   1.0000   1.0000   1.0000   1.0000   1.0000   1.0000
     1.0000   1.0000   1.0000   1.0000   1.0000   1.0000   1.0000   1.0000
     1.0000   1.0000   1.0000   1.0000   1.0000   1.0000   1.0000   1.0000
     1.0000   1.0000   1.0000   1.0000   1.0000   1.0000   1.0000   1.0000
     1.0000   1.0000   1.0000   1.0000   1.0000   1.0000   1.0000   1.0000
     1.0000   1.0000   1.0000   1.0000   1.0000   1.0000   1.0000   1.0000
     1.0000   1.0000

          k =-0.3333 0.1925-0.3538 (  3165 PWs)   bands (ev):

   -74.2419 -74.2416 -74.2414 -74.2413 -42.9688 -42.9687 -42.9680 -42.9678
   -42.9653 -42.9651 -42.9647 -42.9638 -42.9621 -42.9614 -42.9608 -42.9604
    -6.1021  -5.6692  -5.6280  -5.4354   2.2464   2.2549   2.2679   2.5364
     2.9144   2.9678   2.9792   3.0735   3.0785   3.2542   3.2682   3.5564
     4.7668   4.8653   4.8812   4.9184   4.9511   5.0381   5.0413   5.0561
     5.2769   5.6120   5.6745   5.7515   6.3097   6.3882   6.4210   7.2114
     7.2377   7.3025

     occupation numbers 
     1.0000   1.0000   1.0000   1.0000   1.0000   1.0000   1.0000   1.0000
     1.0000   1.0000   1.0000   1.0000   1.0000   1.0000   1.0000   1.0000
     1.0000   1.0000   1.0000   1.0000   1.0000   1.0000   1.0000   1.0000
     1.0000   1.0000   1.0000   1.0000   1.0000   1.0000   1.0000   1.0000
     1.0000   1.0000   1.0000   1.0000   1.0000   1.0000   1.0000   1.0000
     1.0000   1.0000   1.0000   1.0000   1.0000   1.0000   1.0000   1.0000
     1.0000   1.0000

          k =-0.3333 0.1925-0.8437 (  3166 PWs)   bands (ev):

   -74.2416 -74.2415 -74.2415 -74.2414 -42.9694 -42.9693 -42.9685 -42.9683
   -42.9653 -42.9651 -42.9645 -42.9641 -42.9625 -42.9616 -42.9612 -42.9607
    -5.7394  -5.5712  -5.5397  -5.4663   2.1174   2.1976   2.2401   2.2827
     2.8492   3.0004   3.0655   3.1403   3.1795   3.3267   3.4015   3.4066
     4.8033   4.8277   4.8407   4.8964   5.0224   5.0355   5.0826   5.0905
     5.3898   5.4415   5.6490   5.8122   5.9517   6.1466   6.2706   6.5083
     6.6652   6.7775

     occupation numbers 
     1.0000   1.0000   1.0000   1.0000   1.0000   1.0000   1.0000   1.0000
     1.0000   1.0000   1.0000   1.0000   1.0000   1.0000   1.0000   1.0000
     1.0000   1.0000   1.0000   1.0000   1.0000   1.0000   1.0000   1.0000
     1.0000   1.0000   1.0000   1.0000   1.0000   1.0000   1.0000   1.0000
     1.0000   1.0000   1.0000   1.0000   1.0000   1.0000   1.0000   1.0000
     1.0000   1.0000   1.0000   1.0000   1.0000   1.0000   1.0000   1.0000
     1.0000   1.0000

          k =-0.3333 0.1925 1.1159 (  3158 PWs)   bands (ev):

   -74.2416 -74.2415 -74.2415 -74.2413 -42.9698 -42.9689 -42.9688 -42.9679
   -42.9652 -42.9648 -42.9645 -42.9643 -42.9623 -42.9616 -42.9612 -42.9607
    -5.6610  -5.6085  -5.5998  -5.4444   1.9719   2.0702   2.1563   2.1912
     2.9267   3.0063   3.2043   3.2124   3.2147   3.3840   3.3963   3.5410
     4.7300   4.9106   4.9221   4.9834   5.0235   5.0564   5.0757   5.1499
     5.3058   5.4344   5.5273   5.8574   5.9601   6.3043   6.3702   6.3928
     6.5700   6.7133

     occupation numbers 
     1.0000   1.0000   1.0000   1.0000   1.0000   1.0000   1.0000   1.0000
     1.0000   1.0000   1.0000   1.0000   1.0000   1.0000   1.0000   1.0000
     1.0000   1.0000   1.0000   1.0000   1.0000   1.0000   1.0000   1.0000
     1.0000   1.0000   1.0000   1.0000   1.0000   1.0000   1.0000   1.0000
     1.0000   1.0000   1.0000   1.0000   1.0000   1.0000   1.0000   1.0000
     1.0000   1.0000   1.0000   1.0000   1.0000   1.0000   1.0000   1.0000
     1.0000   1.0000

          k =-0.3333 0.1925 0.6260 (  3178 PWs)   bands (ev):

   -74.2418 -74.2417 -74.2415 -74.2414 -42.9688 -42.9687 -42.9681 -42.9679
   -42.9655 -42.9650 -42.9645 -42.9642 -42.9622 -42.9613 -42.9610 -42.9604
    -5.9122  -5.8353  -5.6379  -5.4702   2.2259   2.2597   2.3806   2.4420
     2.7486   2.9643   3.0082   3.1316   3.1909   3.2089   3.3189   3.4806
     4.7217   4.8105   4.8265   4.8317   5.0076   5.0269   5.0352   5.0741
     5.4039   5.7769   5.8468   6.1640   6.2824   6.3810   6.5419   6.8290
     6.9689   7.0598

     occupation numbers 
     1.0000   1.0000   1.0000   1.0000   1.0000   1.0000   1.0000   1.0000
     1.0000   1.0000   1.0000   1.0000   1.0000   1.0000   1.0000   1.0000
     1.0000   1.0000   1.0000   1.0000   1.0000   1.0000   1.0000   1.0000
     1.0000   1.0000   1.0000   1.0000   1.0000   1.0000   1.0000   1.0000
     1.0000   1.0000   1.0000   1.0000   1.0000   1.0000   1.0000   1.0000
     1.0000   1.0000   1.0000   1.0000   1.0000   1.0000   1.0000   1.0000
     1.0000   1.0000

          k = 0.3333-0.5774-0.4899 (  3179 PWs)   bands (ev):

   -74.2418 -74.2417 -74.2415 -74.2414 -42.9692 -42.9685 -42.9683 -42.9674
   -42.9653 -42.9650 -42.9646 -42.9642 -42.9618 -42.9613 -42.9612 -42.9607
    -5.9702  -5.8142  -5.5773  -5.4897   2.2226   2.2557   2.4117   2.4192
     2.7644   2.9412   3.0337   3.1279   3.1355   3.2213   3.3648   3.4358
     4.7442   4.8091   4.8292   4.8567   4.9798   5.0263   5.0391   5.0624
     5.4401   5.6724   5.9455   6.0314   6.1446   6.5611   6.6180   6.8473
     6.9188   6.9960

     occupation numbers 
     1.0000   1.0000   1.0000   1.0000   1.0000   1.0000   1.0000   1.0000
     1.0000   1.0000   1.0000   1.0000   1.0000   1.0000   1.0000   1.0000
     1.0000   1.0000   1.0000   1.0000   1.0000   1.0000   1.0000   1.0000
     1.0000   1.0000   1.0000   1.0000   1.0000   1.0000   1.0000   1.0000
     1.0000   1.0000   1.0000   1.0000   1.0000   1.0000   1.0000   1.0000
     1.0000   1.0000   1.0000   1.0000   1.0000   1.0000   1.0000   1.0000
     1.0000   1.0000

          k = 0.3333-0.5774-0.9798 (  3173 PWs)   bands (ev):

   -74.2417 -74.2416 -74.2415 -74.2414 -42.9694 -42.9692 -42.9685 -42.9684
   -42.9653 -42.9650 -42.9646 -42.9641 -42.9622 -42.9616 -42.9615 -42.9609
    -5.7686  -5.5417  -5.5169  -5.4915   2.2184   2.3074   2.3634   2.4430
     2.7313   2.7870   2.8741   3.0830   3.2263   3.3807   3.3862   3.3939
     4.7611   4.7946   4.8795   4.8868   4.9635   5.0224   5.0329   5.0894
     5.5041   5.5260   5.5886   5.8631   5.9692   5.9746   6.0840   6.6778
     6.6961   6.7140

     occupation numbers 
     1.0000   1.0000   1.0000   1.0000   1.0000   1.0000   1.0000   1.0000
     1.0000   1.0000   1.0000   1.0000   1.0000   1.0000   1.0000   1.0000
     1.0000   1.0000   1.0000   1.0000   1.0000   1.0000   1.0000   1.0000
     1.0000   1.0000   1.0000   1.0000   1.0000   1.0000   1.0000   1.0000
     1.0000   1.0000   1.0000   1.0000   1.0000   1.0000   1.0000   1.0000
     1.0000   1.0000   1.0000   1.0000   1.0000   1.0000   1.0000   1.0000
     1.0000   1.0000

 ------ SPIN DOWN ----------


          k = 0.0000 0.0000 0.0000 (  3203 PWs)   bands (ev):

   -70.2726 -70.2721 -70.2720 -70.2719 -39.1069 -39.1060 -39.1047 -39.1030
   -39.0523 -39.0503 -39.0495 -39.0483 -39.0022 -39.0009 -39.0008 -39.0001
    -6.2270  -5.5653  -5.5648  -5.3571   2.3009   2.3055   2.4166   4.0430
     4.0777   4.1017   4.1962   4.2069   4.2277   4.2362   4.2851   4.2880
     7.3983   8.3163   8.3295   8.4440   8.4659   8.5687   8.5834   8.5838
     8.6195   8.6216   8.8710   8.8918   8.9635   9.5401   9.5450   9.6267
     9.6306   9.7285

     occupation numbers 
     1.0000   1.0000   1.0000   1.0000   1.0000   1.0000   1.0000   1.0000
     1.0000   1.0000   1.0000   1.0000   1.0000   1.0000   1.0000   1.0000
     1.0000   1.0000   1.0000   1.0000   1.0000   1.0000   1.0000   1.0000
     1.0000   1.0000   1.0000   1.0000   1.0000   1.0000   1.0000   1.0000
     1.0000   0.0001   0.0000   0.0000   0.0000   0.0000   0.0000   0.0000
     0.0000   0.0000   0.0000   0.0000   0.0000   0.0000   0.0000   0.0000
     0.0000   0.0000

          k = 0.0000 0.0000 0.4899 (  3184 PWs)   bands (ev):

   -70.2723 -70.2721 -70.2720 -70.2719 -39.1068 -39.1060 -39.1044 -39.1029
   -39.0522 -39.0504 -39.0498 -39.0483 -39.0019 -39.0017 -39.0016 -39.0015
    -6.0174  -5.4984  -5.4981  -5.4354   2.5908   2.5947   2.6622   3.4588
     3.8179   3.8620   3.8639   4.0917   4.1115   4.1492   4.1912   4.1978
     7.6759   7.9240   7.9301   8.4157   8.4424   8.4508   8.4558   8.4716
     8.6024   8.6032   8.6842   9.2798   9.3810   9.3844   9.4550   9.5524
     9.5545   9.6087

     occupation numbers 
     1.0000   1.0000   1.0000   1.0000   1.0000   1.0000   1.0000   1.0000
     1.0000   1.0000   1.0000   1.0000   1.0000   1.0000   1.0000   1.0000
     1.0000   1.0000   1.0000   1.0000   1.0000   1.0000   1.0000   1.0000
     1.0000   1.0000   1.0000   1.0000   1.0000   1.0000   1.0000   1.0000
     0.9977   0.6021   0.5774   0.0000   0.0000   0.0000   0.0000   0.0000
     0.0000   0.0000   0.0000   0.0000   0.0000   0.0000   0.0000   0.0000
     0.0000   0.0000

          k = 0.0000 0.0000 0.9798 (  3151 PWs)   bands (ev):

   -70.2721 -70.2720 -70.2718 -70.2718 -39.1065 -39.1058 -39.1039 -39.1032
   -39.0521 -39.0504 -39.0498 -39.0488 -39.0041 -39.0025 -39.0024 -39.0015
    -5.6426  -5.5511  -5.3787  -5.3786   2.4209   2.5048   2.5082   2.5085
     4.0238   4.0288   4.1042   4.1334   4.1394   4.1424   4.1642   4.1803
     7.4538   7.4545   8.3353   8.4623   8.4664   8.5171   8.5630   8.5813
     8.5884   8.6829   8.7971   8.8003   9.1191   9.1214   9.1556   9.1579
     9.5461   9.6667

     occupation numbers 
     1.0000   1.0000   1.0000   1.0000   1.0000   1.0000   1.0000   1.0000
     1.0000   1.0000   1.0000   1.0000   1.0000   1.0000   1.0000   1.0000
     1.0000   1.0000   1.0000   1.0000   1.0000   1.0000   1.0000   1.0000
     1.0000   1.0000   1.0000   1.0000   1.0000   1.0000   1.0000   1.0000
     1.0000   1.0000   0.0000   0.0000   0.0000   0.0000   0.0000   0.0000
     0.0000   0.0000   0.0000   0.0000   0.0000   0.0000   0.0000   0.0000
     0.0000   0.0000

          k = 0.0000 0.3849-0.1361 (  3185 PWs)   bands (ev):

   -70.2723 -70.2722 -70.2720 -70.2719 -39.1063 -39.1052 -39.1052 -39.1035
   -39.0517 -39.0504 -39.0496 -39.0486 -39.0019 -39.0012 -39.0007 -39.0000
    -6.0750  -5.7463  -5.5169  -5.4133   2.5313   2.6245   2.6932   3.5521
     3.7846   3.9001   4.1283   4.1944   4.2269   4.2286   4.2652   4.2672
     7.5351   8.0037   8.4208   8.4220   8.4250   8.4343   8.4420   8.5072
     8.6356   8.7420   8.7874   9.2212   9.3222   9.4915   9.5435   9.7041
     9.8879   9.9635

     occupation numbers 
     1.0000   1.0000   1.0000   1.0000   1.0000   1.0000   1.0000   1.0000
     1.0000   1.0000   1.0000   1.0000   1.0000   1.0000   1.0000   1.0000
     1.0000   1.0000   1.0000   1.0000   1.0000   1.0000   1.0000   1.0000
     1.0000   1.0000   1.0000   1.0000   1.0000   1.0000   1.0000   1.0000
     1.0000   0.2846   0.0000   0.0000   0.0000   0.0000   0.0000   0.0000
     0.0000   0.0000   0.0000   0.0000   0.0000   0.0000   0.0000   0.0000
     0.0000   0.0000

          k = 0.0000 0.3849 0.3538 (  3165 PWs)   bands (ev):

   -70.2723 -70.2720 -70.2720 -70.2718 -39.1060 -39.1052 -39.1050 -39.1036
   -39.0517 -39.0504 -39.0497 -39.0487 -39.0023 -39.0021 -39.0011 -39.0010
    -5.9845  -5.5759  -5.5376  -5.3561   2.7085   2.7120   2.8445   3.4480
     3.5324   3.7114   3.7912   4.0302   4.0930   4.1204   4.2402   4.2702
     7.4678   8.1253   8.1436   8.2213   8.2262   8.2873   8.2948   8.6169
     8.7635   8.7734   8.8768   9.0116   9.2785   9.2870   9.5985   9.8565
     9.9213   9.9520

     occupation numbers 
     1.0000   1.0000   1.0000   1.0000   1.0000   1.0000   1.0000   1.0000
     1.0000   1.0000   1.0000   1.0000   1.0000   1.0000   1.0000   1.0000
     1.0000   1.0000   1.0000   1.0000   1.0000   1.0000   1.0000   1.0000
     1.0000   1.0000   1.0000   1.0000   1.0000   1.0000   1.0000   1.0000
     1.0000   0.0334   0.0215   0.0023   0.0020   0.0002   0.0002   0.0000
     0.0000   0.0000   0.0000   0.0000   0.0000   0.0000   0.0000   0.0000
     0.0000   0.0000

          k = 0.0000 0.3849 0.8437 (  3166 PWs)   bands (ev):

   -70.2721 -70.2720 -70.2719 -70.2719 -39.1059 -39.1052 -39.1047 -39.1039
   -39.0517 -39.0505 -39.0499 -39.0491 -39.0033 -39.0033 -39.0022 -39.0020
    -5.6415  -5.4839  -5.4537  -5.3852   2.7122   2.7176   2.7668   2.8395
     3.4154   3.6088   3.8101   3.9643   4.1247   4.1526   4.1642   4.1731
     7.5936   7.7207   7.8618   8.0656   8.3669   8.3859   8.5010   8.5383
     8.6847   8.7353   8.7901   8.8948   9.1265   9.2810   9.3258   9.4205
     9.5020   9.6017

     occupation numbers 
     1.0000   1.0000   1.0000   1.0000   1.0000   1.0000   1.0000   1.0000
     1.0000   1.0000   1.0000   1.0000   1.0000   1.0000   1.0000   1.0000
     1.0000   1.0000   1.0000   1.0000   1.0000   1.0000   1.0000   1.0000
     1.0000   1.0000   1.0000   1.0000   1.0000   1.0000   1.0000   1.0000
     0.9999   0.9912   0.8175   0.1126   0.0000   0.0000   0.0000   0.0000
     0.0000   0.0000   0.0000   0.0000   0.0000   0.0000   0.0000   0.0000
     0.0000   0.0000

          k = 0.0000 0.3849-1.1159 (  3158 PWs)   bands (ev):

   -70.2720 -70.2720 -70.2719 -70.2718 -39.1059 -39.1051 -39.1047 -39.1039
   -39.0515 -39.0506 -39.0498 -39.0493 -39.0040 -39.0027 -39.0025 -39.0014
    -5.5678  -5.5182  -5.5109  -5.3649   2.5857   2.5935   2.6360   2.6721
     3.7337   3.7749   3.8940   4.0930   4.1002   4.1111   4.1949   4.2408
     7.4667   7.5776   8.1812   8.2372   8.3137   8.4099   8.4525   8.6968
     8.7420   8.8108   8.8756   8.9241   9.0409   9.1316   9.2678   9.3669
     9.3777   9.4399

     occupation numbers 
     1.0000   1.0000   1.0000   1.0000   1.0000   1.0000   1.0000   1.0000
     1.0000   1.0000   1.0000   1.0000   1.0000   1.0000   1.0000   1.0000
     1.0000   1.0000   1.0000   1.0000   1.0000   1.0000   1.0000   1.0000
     1.0000   1.0000   1.0000   1.0000   1.0000   1.0000   1.0000   1.0000
     1.0000   0.9999   0.0079   0.0014   0.0001   0.0000   0.0000   0.0000
     0.0000   0.0000   0.0000   0.0000   0.0000   0.0000   0.0000   0.0000
     0.0000   0.0000

          k = 0.0000 0.3849-0.6260 (  3178 PWs)   bands (ev):

   -70.2722 -70.2722 -70.2720 -70.2718 -39.1062 -39.1052 -39.1049 -39.1039
   -39.0515 -39.0505 -39.0496 -39.0490 -39.0022 -39.0021 -39.0012 -39.0010
    -5.8050  -5.7329  -5.5463  -5.3889   2.8098   2.9200   2.9319   3.0640
     3.3686   3.6995   3.9181   4.1138   4.1254   4.1305   4.2069   4.2118
     7.5789   7.9243   7.9847   8.2253   8.2265   8.3267   8.5887   8.7131
     8.7812   8.8512   9.0279   9.1003   9.1455   9.1839   9.4923   9.5135
     9.6469   9.8838

     occupation numbers 
     1.0000   1.0000   1.0000   1.0000   1.0000   1.0000   1.0000   1.0000
     1.0000   1.0000   1.0000   1.0000   1.0000   1.0000   1.0000   1.0000
     1.0000   1.0000   1.0000   1.0000   1.0000   1.0000   1.0000   1.0000
     1.0000   1.0000   1.0000   1.0000   1.0000   1.0000   1.0000   1.0000
     0.9999   0.6009   0.3550   0.0020   0.0020   0.0000   0.0000   0.0000
     0.0000   0.0000   0.0000   0.0000   0.0000   0.0000   0.0000   0.0000
     0.0000   0.0000

          k = 0.3333 0.1925-0.2722 (  3186 PWs)   bands (ev):

   -70.2723 -70.2721 -70.2720 -70.2720 -39.1067 -39.1060 -39.1044 -39.1032
   -39.0513 -39.0502 -39.0496 -39.0491 -39.0017 -39.0009 -39.0008 -39.0005
    -6.0263  -5.5927  -5.5761  -5.5759   2.6484   2.6525   2.7242   3.5365
     3.8362   3.8423   4.0466   4.0612   4.1865   4.1936   4.3090   4.3103
     7.6376   8.1811   8.2118   8.2170   8.3156   8.3169   8.5650   8.7288
     8.7307   8.8162   9.2195   9.2260   9.2845   9.2882   9.2905   9.9510
     9.9531  10.0582

     occupation numbers 
     1.0000   1.0000   1.0000   1.0000   1.0000   1.0000   1.0000   1.0000
     1.0000   1.0000   1.0000   1.0000   1.0000   1.0000   1.0000   1.0000
     1.0000   1.0000   1.0000   1.0000   1.0000   1.0000   1.0000   1.0000
     1.0000   1.0000   1.0000   1.0000   1.0000   1.0000   1.0000   1.0000
     0.9994   0.0079   0.0031   0.0027   0.0001   0.0001   0.0000   0.0000
     0.0000   0.0000   0.0000   0.0000   0.0000   0.0000   0.0000   0.0000
     0.0000   0.0000

          k = 0.3333 0.1925 0.2177 (  3178 PWs)   bands (ev):

   -70.2723 -70.2720 -70.2720 -70.2719 -39.1068 -39.1059 -39.1045 -39.1029
   -39.0515 -39.0504 -39.0497 -39.0491 -39.0029 -39.0016 -39.0015 -39.0004
    -6.0522  -5.4962  -5.4958  -5.3969   2.5589   2.5632   2.6675   3.5438
     3.7400   3.8539   3.8559   4.0997   4.1071   4.1659   4.2208   4.2281
     7.5791   7.9583   7.9660   8.3675   8.4658   8.4690   8.4846   8.4881
     8.6172   8.6176   8.6380   9.2729   9.3303   9.4624   9.4634   9.5239
     9.5255   9.6889

     occupation numbers 
     1.0000   1.0000   1.0000   1.0000   1.0000   1.0000   1.0000   1.0000
     1.0000   1.0000   1.0000   1.0000   1.0000   1.0000   1.0000   1.0000
     1.0000   1.0000   1.0000   1.0000   1.0000   1.0000   1.0000   1.0000
     1.0000   1.0000   1.0000   1.0000   1.0000   1.0000   1.0000   1.0000
     0.9999   0.4614   0.4297   0.0000   0.0000   0.0000   0.0000   0.0000
     0.0000   0.0000   0.0000   0.0000   0.0000   0.0000   0.0000   0.0000
     0.0000   0.0000

          k = 0.3333 0.1925 0.7076 (  3164 PWs)   bands (ev):

   -70.2722 -70.2720 -70.2718 -70.2718 -39.1065 -39.1057 -39.1041 -39.1031
   -39.0514 -39.0505 -39.0499 -39.0496 -39.0029 -39.0028 -39.0026 -39.0025
    -5.7452  -5.4662  -5.3742  -5.3741   2.9047   2.9505   2.9526   2.9882
     3.3710   3.3744   3.3748   3.8570   4.0701   4.0747   4.1732   4.1773
     7.5328   7.5365   7.9354   8.1953   8.1961   8.2086   8.3123   8.6334
     8.7648   8.8101   8.8108   8.9778   9.1143   9.1173   9.2336   9.4696
     9.6272   9.6283

     occupation numbers 
     1.0000   1.0000   1.0000   1.0000   1.0000   1.0000   1.0000   1.0000
     1.0000   1.0000   1.0000   1.0000   1.0000   1.0000   1.0000   1.0000
     1.0000   1.0000   1.0000   1.0000   1.0000   1.0000   1.0000   1.0000
     1.0000   1.0000   1.0000   1.0000   1.0000   1.0000   1.0000   1.0000
     1.0000   1.0000   0.5557   0.0052   0.0051   0.0035   0.0001   0.0000
     0.0000   0.0000   0.0000   0.0000   0.0000   0.0000   0.0000   0.0000
     0.0000   0.0000

          k = 0.3333 0.1925-1.2520 (  3156 PWs)   bands (ev):

   -70.2721 -70.2720 -70.2718 -70.2718 -39.1064 -39.1057 -39.1040 -39.1031
   -39.0512 -39.0504 -39.0499 -39.0498 -39.0042 -39.0027 -39.0025 -39.0014
    -5.6946  -5.5061  -5.3768  -5.3767   2.5640   2.6361   2.6368   2.6593
     3.7747   3.7781   3.8135   4.1419   4.1433   4.1475   4.1541   4.1718
     7.4851   7.4865   8.1551   8.3380   8.3414   8.3564   8.4975   8.6084
     8.6474   8.7671   8.7693   8.7718   9.1197   9.1213   9.3721   9.3732
     9.4517   9.6322

     occupation numbers 
     1.0000   1.0000   1.0000   1.0000   1.0000   1.0000   1.0000   1.0000
     1.0000   1.0000   1.0000   1.0000   1.0000   1.0000   1.0000   1.0000
     1.0000   1.0000   1.0000   1.0000   1.0000   1.0000   1.0000   1.0000
     1.0000   1.0000   1.0000   1.0000   1.0000   1.0000   1.0000   1.0000
     1.0000   1.0000   0.0161   0.0000   0.0000   0.0000   0.0000   0.0000
     0.0000   0.0000   0.0000   0.0000   0.0000   0.0000   0.0000   0.0000
     0.0000   0.0000

          k = 0.3333 0.1925-0.7621 (  3171 PWs)   bands (ev):

   -70.2721 -70.2721 -70.2720 -70.2719 -39.1066 -39.1059 -39.1040 -39.1033
   -39.0511 -39.0503 -39.0497 -39.0496 -39.0026 -39.0016 -39.0015 -39.0007
    -5.7705  -5.6974  -5.5052  -5.5051   2.7429   2.7435   2.8559   2.9230
     3.7950   3.7953   4.0547   4.0809   4.0951   4.1551   4.1885   4.1897
     7.7847   7.7851   8.0602   8.1502   8.3131   8.3139   8.6369   8.7104
     8.8926   8.8939   8.9253   9.0182   9.1152   9.1169   9.5478   9.7043
     9.7308   9.7312

     occupation numbers 
     1.0000   1.0000   1.0000   1.0000   1.0000   1.0000   1.0000   1.0000
[...]
     6.8513   6.8817   6.9440   7.2207   7.2646   7.5260   7.5330   7.6671
    10.0849  10.7644  10.9929  11.0301  11.0450  11.1327  11.2361  11.4040
    11.8800  11.9113  11.9558  12.4226  13.0607  13.1361  13.2499  14.0891
    14.2767  14.3376

     occupation numbers 
     1.0000   1.0000   1.0000   1.0000   1.0000   1.0000   1.0000   1.0000
     1.0000   1.0000   1.0000   1.0000   1.0000   1.0000   1.0000   1.0000
     1.0000   1.0000   1.0000   1.0000   1.0000   1.0000   1.0000   1.0000
     1.0000   1.0000   1.0000   1.0000   1.0000   1.0000   1.0000   1.0000
     1.0000   1.0000   1.0000   1.0000   1.0000   1.0000   1.0000   1.0000
     0.4294   0.3072   0.1670   0.0000   0.0000   0.0000   0.0000   0.0000
     0.0000   0.0000

          k =-0.3769 0.2123-0.9570 (  3166 PWs)   bands (ev):

   -66.9871 -66.9672 -66.9212 -66.8944 -35.8285 -35.8164 -35.8080 -35.8032
   -35.7969 -35.7836 -35.7625 -35.7515 -35.7356 -35.7348 -35.7260 -35.7092
    -2.3520  -2.0507  -1.9769  -1.8292   5.5535   5.6453   5.6480   5.6876
     6.7600   6.7680   7.1537   7.1876   7.3741   7.5733   7.5972   7.6369
    10.2660  10.4389  10.6845  10.8061  11.2717  11.3683  11.3926  11.5893
    11.6835  11.7178  11.9973  12.1777  12.7099  12.8014  13.0617  13.1051
    13.5123  13.5676

     occupation numbers 
     1.0000   1.0000   1.0000   1.0000   1.0000   1.0000   1.0000   1.0000
     1.0000   1.0000   1.0000   1.0000   1.0000   1.0000   1.0000   1.0000
     1.0000   1.0000   1.0000   1.0000   1.0000   1.0000   1.0000   1.0000
     1.0000   1.0000   1.0000   1.0000   1.0000   1.0000   1.0000   1.0000
     1.0000   1.0000   1.0000   1.0000   1.0000   1.0000   1.0000   0.9978
     0.9689   0.9341   0.0812   0.0005   0.0000   0.0000   0.0000   0.0000
     0.0000   0.0000

          k =-0.3670 0.2180 1.2630 (  3158 PWs)   bands (ev):

   -66.9871 -66.9672 -66.9212 -66.8943 -35.8285 -35.8163 -35.8080 -35.8037
   -35.7968 -35.7841 -35.7622 -35.7515 -35.7352 -35.7346 -35.7259 -35.7088
    -2.2174  -2.0999  -2.0882  -1.7933   5.3861   5.4503   5.4862   5.5038
     6.9426   7.1121   7.1641   7.4456   7.4694   7.5591   7.5767   7.7072
    10.1397  10.2176  11.0764  11.1036  11.2321  11.2764  11.3400  11.7850
    11.8072  11.8278  11.8589  12.3943  12.4415  12.7256  13.0083  13.0463
    13.2285  13.3453

     occupation numbers 
     1.0000   1.0000   1.0000   1.0000   1.0000   1.0000   1.0000   1.0000
     1.0000   1.0000   1.0000   1.0000   1.0000   1.0000   1.0000   1.0000
     1.0000   1.0000   1.0000   1.0000   1.0000   1.0000   1.0000   1.0000
     1.0000   1.0000   1.0000   1.0000   1.0000   1.0000   1.0000   1.0000
     1.0000   1.0000   1.0000   1.0000   1.0000   1.0000   1.0000   0.7909
     0.7187   0.6422   0.5166   0.0000   0.0000   0.0000   0.0000   0.0000
     0.0000   0.0000

          k =-0.3694 0.2166 0.7080 (  3178 PWs)   bands (ev):

   -66.9875 -66.9676 -66.9216 -66.8947 -35.8291 -35.8144 -35.8085 -35.7974
   -35.7952 -35.7771 -35.7631 -35.7509 -35.7354 -35.7282 -35.7255 -35.7017
    -2.7016  -2.5743  -2.1923  -1.8603   5.7552   5.8339   5.9156   6.0325
     6.5340   6.9100   7.0742   7.3374   7.3679   7.4024   7.5612   7.6539
    10.2923  10.5750  10.7361  10.8936  11.0510  11.2568  11.4061  11.5392
    11.8066  12.0178  12.6569  12.7611  12.8617  12.9591  13.4345  13.5774
    13.6091  14.0620

     occupation numbers 
     1.0000   1.0000   1.0000   1.0000   1.0000   1.0000   1.0000   1.0000
     1.0000   1.0000   1.0000   1.0000   1.0000   1.0000   1.0000   1.0000
     1.0000   1.0000   1.0000   1.0000   1.0000   1.0000   1.0000   1.0000
     1.0000   1.0000   1.0000   1.0000   1.0000   1.0000   1.0000   1.0000
     1.0000   1.0000   1.0000   1.0000   1.0000   1.0000   1.0000   0.9996
     0.7206   0.0536   0.0000   0.0000   0.0000   0.0000   0.0000   0.0000
     0.0000   0.0000

          k = 0.3698-0.6462-0.5550 (  3179 PWs)   bands (ev):

   -66.9875 -66.9676 -66.9216 -66.8947 -35.8292 -35.8143 -35.8086 -35.7977
   -35.7949 -35.7780 -35.7626 -35.7510 -35.7354 -35.7279 -35.7256 -35.7016
    -2.8223  -2.5284  -2.0590  -1.9028   5.7124   5.7883   5.8561   6.1152
     6.5785   6.8670   7.1379   7.2586   7.3754   7.4356   7.5717   7.6534
    10.3908  10.6357  10.6452  10.8987  11.0952  11.1990  11.3468  11.5465
    11.8033  12.0089  12.5774  12.7120  12.7322  13.2000  13.4905  13.5937
    13.7698  13.7977

     occupation numbers 
     1.0000   1.0000   1.0000   1.0000   1.0000   1.0000   1.0000   1.0000
     1.0000   1.0000   1.0000   1.0000   1.0000   1.0000   1.0000   1.0000
     1.0000   1.0000   1.0000   1.0000   1.0000   1.0000   1.0000   1.0000
     1.0000   1.0000   1.0000   1.0000   1.0000   1.0000   1.0000   1.0000
     1.0000   1.0000   1.0000   1.0000   1.0000   1.0000   1.0000   0.9995
     0.7322   0.0645   0.0000   0.0000   0.0000   0.0000   0.0000   0.0000
     0.0000   0.0000

          k = 0.3673-0.6477-1.1100 (  3173 PWs)   bands (ev):

   -66.9871 -66.9672 -66.9212 -66.8944 -35.8284 -35.8161 -35.8080 -35.8035
   -35.7963 -35.7835 -35.7628 -35.7520 -35.7357 -35.7347 -35.7262 -35.7092
    -2.4222  -1.9782  -1.9209  -1.8924   5.7301   5.7540   5.7949   5.9259
     6.4651   6.6337   6.7520   7.1824   7.4567   7.5608   7.5754   7.6438
    10.3819  10.5619  10.6085  10.6207  11.1119  11.1326  11.1859  11.6110
    11.8553  11.8946  12.0009  12.4840  12.6788  12.7095  12.7136  13.3615
    13.4647  13.5563

     occupation numbers 
     1.0000   1.0000   1.0000   1.0000   1.0000   1.0000   1.0000   1.0000
     1.0000   1.0000   1.0000   1.0000   1.0000   1.0000   1.0000   1.0000
     1.0000   1.0000   1.0000   1.0000   1.0000   1.0000   1.0000   1.0000
     1.0000   1.0000   1.0000   1.0000   1.0000   1.0000   1.0000   1.0000
     1.0000   1.0000   1.0000   1.0000   1.0000   1.0000   1.0000   0.9956
     0.5313   0.3706   0.0757   0.0000   0.0000   0.0000   0.0000   0.0000
     0.0000   0.0000

     the Fermi energy is    11.8629 ev

!    total energy              =   -1411.39257888 Ry
     total all-electron energy =    -12462.826193 Ry
     estimated scf accuracy    <       0.00000154 Ry
     smearing contrib. (-TS)   =      -0.00542941 Ry
     internal energy E=F+TS    =   -1411.38714947 Ry

     The total energy is F=E-TS. E is the sum of the following terms:
     one-electron contribution =    -511.24452226 Ry
     hartree contribution      =     303.81690414 Ry
     xc contribution           =    -132.52490847 Ry
     ewald contribution        =    -576.06546520 Ry
     one-center paw contrib.   =    -495.36915768 Ry
      -> PAW hartree energy AE =     344.30187709 Ry
      -> PAW hartree energy PS =    -346.39287496 Ry
      -> PAW xc energy AE      =    -208.00418300 Ry
      -> PAW xc energy PS      =      54.67530056 Ry
      -> total E_H with PAW    =     301.72590626 Ry
      -> total E_XC with PAW   =    -285.85379091 Ry

     total magnetization       =     1.01 Bohr mag/cell
     absolute magnetization    =     1.09 Bohr mag/cell

     convergence has been achieved in 100 iterations

     Forces acting on atoms (cartesian axes, Ry/au):

     atom    1 type  1   force =    -0.00039087    0.00006220    0.00020069
     atom    2 type  2   force =    -0.00003463   -0.00002835    0.00012626
     atom    3 type  3   force =     0.00018817    0.00011944   -0.00006373
     atom    4 type  4   force =    -0.00012679   -0.00036488    0.00016877
     atom    5 type  5   force =     0.00035465    0.00030125   -0.00036469
     atom    6 type  5   force =    -0.00024845   -0.00015808    0.00019611
     atom    7 type  5   force =    -0.00015662   -0.00007360    0.00010121
     atom    8 type  5   force =     0.00041454    0.00014201   -0.00036462
     The non-local contrib.  to forces
     atom    1 type  1   force =    -0.00244992   -0.00169827    0.00785854
     atom    2 type  2   force =    -0.00377326   -0.00075835    0.00831222
     atom    3 type  3   force =    -0.00278712   -0.00304130    0.00847733
     atom    4 type  4   force =    -0.00142196   -0.00054511    0.00685600
     atom    5 type  5   force =    -0.00155202   -0.00025109    0.00480623
     atom    6 type  5   force =    -0.00396507   -0.00273028    0.00701485
     atom    7 type  5   force =    -0.00373788   -0.00172098    0.00657134
     atom    8 type  5   force =    -0.00135446   -0.00143058    0.00503404
     The ionic contribution  to forces
     atom    1 type  1   force =    -0.07849004   -0.01733305    0.15007504
     atom    2 type  2   force =    -0.01670164   -0.06424878    0.13137068
     atom    3 type  3   force =    -0.03840399    0.03267964    0.11002395
     atom    4 type  4   force =    -0.10124067   -0.08620183    0.18840477
     atom    5 type  5   force =     0.07581527    0.03654004   -0.15712429
     atom    6 type  5   force =     0.03086117    0.03696547   -0.12813262
     atom    7 type  5   force =     0.04390087    0.00610652   -0.12516783
     atom    8 type  5   force =     0.08425903    0.05549201   -0.16944971
     The local contribution  to forces
     atom    1 type  1   force =     0.08163354    0.01921958   -0.15870766
     atom    2 type  2   force =     0.02096625    0.06449115   -0.14000712
     atom    3 type  3   force =     0.04079819   -0.02907143   -0.11866603
     atom    4 type  4   force =     0.10249457    0.08686714   -0.19550545
     atom    5 type  5   force =    -0.07350596   -0.03519198    0.15149041
     atom    6 type  5   force =    -0.02785896   -0.03512424    0.12205982
     atom    7 type  5   force =    -0.04081859   -0.00443084    0.11904107
     atom    8 type  5   force =    -0.08187863   -0.05412650    0.16381325
     The core correction contribution to forces
     atom    1 type  1   force =    -0.00025800   -0.00018427    0.00046124
     atom    2 type  2   force =    -0.00018177   -0.00013645    0.00046455
     atom    3 type  3   force =    -0.00024312   -0.00010748    0.00047863
     atom    4 type  4   force =    -0.00030527   -0.00013896    0.00048363
     atom    5 type  5   force =     0.00001072   -0.00000543   -0.00006685
     atom    6 type  5   force =     0.00010186    0.00006124   -0.00014107
     atom    7 type  5   force =     0.00009022    0.00004977   -0.00013237
     atom    8 type  5   force =     0.00000388    0.00001422   -0.00006661
     The Hubbard contrib.    to forces
     atom    1 type  1   force =     0.00000000    0.00000000    0.00000000
     atom    2 type  2   force =     0.00000000    0.00000000    0.00000000
     atom    3 type  3   force =     0.00000000    0.00000000    0.00000000
     atom    4 type  4   force =     0.00000000    0.00000000    0.00000000
     atom    5 type  5   force =     0.00000000    0.00000000    0.00000000
     atom    6 type  5   force =     0.00000000    0.00000000    0.00000000
     atom    7 type  5   force =     0.00000000    0.00000000    0.00000000
     atom    8 type  5   force =     0.00000000    0.00000000    0.00000000
     The SCF correction term to forces
     atom    1 type  1   force =    -0.00082330    0.00006049    0.00050607
     atom    2 type  2   force =    -0.00034105    0.00062637   -0.00002152
     atom    3 type  3   force =     0.00082737   -0.00033771   -0.00038506
     atom    4 type  4   force =     0.00034970   -0.00034383   -0.00007763
     atom    5 type  5   force =    -0.00041019   -0.00078801    0.00052236
     atom    6 type  5   force =     0.00061571    0.00067203   -0.00061232
     atom    7 type  5   force =     0.00041192   -0.00007578   -0.00021845
     atom    8 type  5   force =    -0.00061212    0.00019515    0.00029697

     Total force =     0.001134     Total SCF correction =     0.002373
     SCF correction compared to forces is large: reduce conv_thr to get better values


     Computing stress (Cartesian axis) and pressure

          total   stress  (Ry/bohr**3)                   (kbar)     P=       -0.77
  -0.00000430  -0.00000011  -0.00000208           -0.63       -0.02       -0.31
  -0.00000011  -0.00000419  -0.00000120           -0.02       -0.62       -0.18
  -0.00000208  -0.00000120  -0.00000724           -0.31       -0.18       -1.06

     kinetic stress (kbar)  22216.76     -1.23    -11.08
                               -1.23  22218.21     -6.41
                              -11.08     -6.41  22183.90

     local   stress (kbar)   2490.57    -24.75    164.85
                              -24.75   2519.13     95.18
                              164.85     95.18   2840.97

     nonloc. stress (kbar)  -1069.84      3.38     12.97
                                3.38  -1073.74      7.49
                               12.97      7.49  -1027.45

     hartree stress (kbar)  18472.24     25.10    -39.63
                               25.10  18443.28    -22.89
                              -39.63    -22.89  18435.62

     exc-cor stress (kbar)  -3359.01     -0.21     -0.55
                               -0.21  -3358.77     -0.32
                               -0.55     -0.32  -3360.95

     corecor stress (kbar)  -3874.08     -0.02      0.02
                               -0.02  -3874.05      0.01
                                0.02      0.01  -3874.10

     ewald   stress (kbar) -34877.27     -2.29   -126.89
                               -2.29 -34874.67    -73.24
                             -126.89    -73.24 -35199.05

     hubbard stress (kbar)      0.00      0.00      0.00
                                0.00      0.00      0.00
                                0.00      0.00      0.00

     DFT-D   stress (kbar)      0.00      0.00      0.00
                                0.00      0.00      0.00
                                0.00      0.00      0.00

     XDM     stress (kbar)      0.00      0.00      0.00
                                0.00      0.00      0.00
                                0.00      0.00      0.00

     dft-nl  stress (kbar)      0.00      0.00      0.00
                                0.00      0.00      0.00
                                0.00      0.00      0.00

     TS-vdW  stress (kbar)      0.00      0.00      0.00
                                0.00      0.00      0.00
                                0.00      0.00      0.00

     MDB     stress (kbar)      0.00      0.00      0.00
                                0.00      0.00      0.00
                                0.00      0.00      0.00

     3D-RISM stress (kbar)      0.00      0.00      0.00
                                0.00      0.00      0.00
                                0.00      0.00      0.00

     Message from routine bfgs:
     history already reset at previous step: exiting
     Energy error            =      2.6E-07 Ry
     Gradient error          =      4.1E-04 Ry/Bohr
     Cell gradient error     =      1.1E+00 kbar
WARNING! With ibrav=0, cell_dofree='ibrav' has no effect. 

     bfgs failed after  19 scf cycles and  14 bfgs steps, convergence not achieved
     (criteria: energy <  1.0E-05 Ry, force <  1.0E-04 Ry/Bohr, cell <  5.0E-01 kbar)

     End of BFGS Geometry Optimization

     Final enthalpy           =   -1411.3925788844 Ry

     File ./temp/mns.bfgs deleted, as requested
Begin final coordinates
     new unit-cell volume =    807.44502 a.u.^3 (   119.65101 Ang^3 )
     density =      4.82978 g/cm^3

CELL_PARAMETERS (angstrom)
   6.996687556  -0.005512825  -0.031339371
   3.493570849   6.062037898  -0.031332428
   1.735620245   1.002063069   2.809364451

ATOMIC_POSITIONS (crystal)
Mn1              0.3738705690        0.3736539086        0.7544165629
Mn2              0.3735986624        0.8738907477        0.7545381151
Mn3              0.8737440531        0.3734500989        0.7548422765
Mn4              0.8738532382        0.8740749905        0.7540147136
S                0.0011147046        0.0008205933        0.9960194780
S                0.0014065710        0.5016508845        0.9950135248
S                0.5015219077        0.0012788784        0.9952629761
S                0.5008903400        0.5011798631        0.9958923530
End final coordinates



     Writing config-only to output data dir ./temp/mns.save/ :
     XML data file

     Writing all to output data dir ./temp/mns.save/ :
     XML data file, charge density, pseudopotentials, collected wavefunctions

     init_run     :      4.39s CPU      4.51s WALL (       1 calls)
     electrons    :  26890.90s CPU  27343.21s WALL (      19 calls)
     update_pot   :     12.16s CPU     12.17s WALL (      18 calls)
     forces       :     39.27s CPU     39.49s WALL (      19 calls)
     stress       :    129.04s CPU    129.13s WALL (      19 calls)

     Called by init_run:
     wfcinit      :      2.65s CPU      2.71s WALL (       1 calls)
     wfcinit:atom :      0.02s CPU      0.02s WALL (      46 calls)
     wfcinit:wfcr :      2.49s CPU      2.55s WALL (      46 calls)
     potinit      :      0.81s CPU      0.84s WALL (       1 calls)
     hinit0       :      0.70s CPU      0.72s WALL (       1 calls)

     Called by electrons:
     c_bands      :  23867.04s CPU  24274.30s WALL (    1587 calls)
     sum_band     :   1649.20s CPU   1692.78s WALL (    1587 calls)
     v_of_rho     :     40.07s CPU     40.76s WALL (    1605 calls)
     v_h          :      1.52s CPU      1.57s WALL (    1605 calls)
     v_xc         :     39.47s CPU     40.12s WALL (    1643 calls)
     newd         :    332.95s CPU    333.16s WALL (    1605 calls)
     PAW_pot      :   1008.24s CPU   1008.44s WALL (    1623 calls)
     mix_rho      :     14.47s CPU     14.62s WALL (    1587 calls)

     Called by c_bands:
     init_us_2    :    146.37s CPU    148.06s WALL (  148626 calls)
     cegterg      :  23568.23s CPU  23973.59s WALL (   73070 calls)

     Called by sum_band:
     sum_band:wei :      1.84s CPU      1.88s WALL (    1587 calls)
     sum_band:loo :   1163.71s CPU   1206.96s WALL (    1587 calls)
     sum_band:buf :     38.05s CPU     38.27s WALL (   73002 calls)
     sum_band:ini :     61.83s CPU     62.17s WALL (   73002 calls)
     sum_band:cal :    570.02s CPU    576.43s WALL (   73830 calls)
     sum_band:bec :     19.52s CPU     19.60s WALL (   73830 calls)
     addusdens    :    477.38s CPU    477.54s WALL (    1587 calls)
                                        0.00s GPU  (    1587 calls)
     addusd:skk   :      0.66s CPU      0.66s WALL (    7935 calls)
                                        0.00s GPU  (    7935 calls)

     Called by *egterg:
     cdiaghg      :   3258.97s CPU   3261.89s WALL (  726214 calls)
     cegterg:over :   2308.59s CPU   2328.71s WALL (  654018 calls)
     cegterg:upda :   1473.25s CPU   1474.49s WALL (  654018 calls)
     cegterg:last :   3706.36s CPU   3707.53s WALL (  311254 calls)
     h_psi        :   9727.13s CPU  10101.51s WALL (  727134 calls)
     s_psi        :   2401.96s CPU   2404.48s WALL (  727134 calls)
     g_psi        :     23.64s CPU     23.72s WALL (  654018 calls)

     Called by h_psi:
     h_psi:calbec :   3024.68s CPU   3072.99s WALL (  727134 calls)
     vloc_psi     :   4206.57s CPU   4529.93s WALL (  727134 calls)
     add_vuspsi   :   2423.81s CPU   2426.70s WALL (  727134 calls)

     General routines
     calbec       :   3626.74s CPU   3682.12s WALL (  805334 calls)
     fft          :     13.40s CPU     13.96s WALL (   40923 calls)
     ffts         :      1.28s CPU      1.36s WALL (    6384 calls)
     fftw         :   4085.03s CPU   4405.56s WALL (35276578 calls)
     interpolate  :      2.45s CPU      2.60s WALL (    3210 calls)
     davcio       :      0.01s CPU      0.01s WALL (      46 calls)

     Parallel routines

     PAW routines
     PAW_pot      :   1008.24s CPU   1008.44s WALL (    1623 calls)

     PWSCF        :      7h31m CPU      7h39m WALL


   This run was terminated on:   4:56:59  23Jan2025            

=------------------------------------------------------------------------------=
   JOB DONE.
=------------------------------------------------------------------------------=
