
     Program PWSCF v.7.3.1 starts on 19Jan2025 at 20:36:10 

     This program is part of the open-source Quantum ESPRESSO suite
     for quantum simulation of materials; please cite
         "P. Giannozzi et al., J. Phys.:Condens. Matter 21 395502 (2009);
         "P. Giannozzi et al., J. Phys.:Condens. Matter 29 465901 (2017);
         "P. Giannozzi et al., J. Chem. Phys. 152 154105 (2020);
          URL http://www.quantum-espresso.org", 
     in publications or presentations arising from this work. More details at
     http://www.quantum-espresso.org/quote

     Parallel version (MPI), running on     6 processors

     MPI processes distributed on     1 nodes
     1132 MiB available memory on the printing compute node when the environment starts

     Reading input from vc_relax.in

     Current dimensions of program PWSCF are:
     Max number of different atomic species (ntypx) = 10
     Max number of k-points (npk) =  40000
     Max angular momentum in pseudopotentials (lmaxx) =  4

     File ./temp/mns.update deleted, as requested

     File ./temp/mns.bfgs deleted, as requested
     file Mn.pbe-spn-kjpaw_psl.0.3.1.UPF: wavefunction(s)  3P 3D renormalized
     file Mn.pbe-spn-kjpaw_psl.0.3.1.UPF: wavefunction(s)  3P 3D renormalized
     file Mn.pbe-spn-kjpaw_psl.0.3.1.UPF: wavefunction(s)  3P 3D renormalized
     file Mn.pbe-spn-kjpaw_psl.0.3.1.UPF: wavefunction(s)  3P 3D renormalized
     file S.pbe-n-kjpaw_psl.1.0.0.UPF: wavefunction(s)  3S 3P renormalized

     R & G space division:  proc/nbgrp/npool/nimage =       6
     Subspace diagonalization in iterative solution of the eigenvalue problem:
     a serial algorithm will be used


     Parallelization info
     --------------------
     sticks:   dense  smooth     PW     G-vecs:    dense   smooth      PW
     Min         374     300     93                 5900     4227     730
     Max         375     301     94                 5902     4229     731
     Sum        2245    1801    559                35405    25365    4381

     Using Slab Decomposition



     bravais-lattice index     =            0
     lattice parameter (alat)  =      14.7866  a.u.
     unit-cell volume          =    1143.0296 (a.u.)^3
     number of atoms/cell      =            8
     number of atomic types    =            5
     number of electrons       =        84.00
     number of Kohn-Sham states=           50
     kinetic-energy cutoff     =      30.0000  Ry
     charge density cutoff     =     150.0000  Ry
     scf convergence threshold =      1.0E-10
     mixing beta               =       0.7000
     number of iterations used =            8  plain     mixing
     energy convergence thresh.=      1.0E-05
     force convergence thresh. =      1.0E-04
     press convergence thresh. =      5.0E-01
     Exchange-correlation= SLA  PW   PBX  PBC
                           (   1   4   3   4   0   0   0)
     nstep                     =           50


     celldm(1)=  14.786571  celldm(2)=   0.000000  celldm(3)=   0.000000
     celldm(4)=   0.000000  celldm(5)=   0.000000  celldm(6)=   0.000000

     crystal axes: (cart. coord. in units of alat)
               a(1) = (   1.000000   0.000000   0.000000 )  
               a(2) = (   0.500000   0.866025   0.000000 )  
               a(3) = (   0.250000   0.144338   0.408248 )  

     reciprocal axes: (cart. coord. in units 2 pi/alat)
               b(1) = (  1.000000 -0.577350 -0.408248 )  
               b(2) = (  0.000000  1.154700 -0.408248 )  
               b(3) = (  0.000000  0.000000  2.449490 )  


     PseudoPot. # 1 for Mn read from file:
     ./../../../pseudos/Mn.pbe-spn-kjpaw_psl.0.3.1.UPF
     MD5 check sum: ba19e6d7ccbc12830efad05ba8577d9c
     Pseudo is Projector augmented-wave + core cor, Zval = 15.0
     Generated using &quot;atomic&quot; code by A. Dal Corso  v.6.2.2
     Shape of augmentation charge: PSQ
     Using radial grid of 1187 points,  6 beta functions with: 
                l(1) =   0
                l(2) =   0
                l(3) =   1
                l(4) =   1
                l(5) =   2
                l(6) =   2
     Q(r) pseudized with 0 coefficients 


     PseudoPot. # 2 for Mn read from file:
     ./../../../pseudos/Mn.pbe-spn-kjpaw_psl.0.3.1.UPF
     MD5 check sum: ba19e6d7ccbc12830efad05ba8577d9c
     Pseudo is Projector augmented-wave + core cor, Zval = 15.0
     Generated using &quot;atomic&quot; code by A. Dal Corso  v.6.2.2
     Shape of augmentation charge: PSQ
     Using radial grid of 1187 points,  6 beta functions with: 
                l(1) =   0
                l(2) =   0
                l(3) =   1
                l(4) =   1
                l(5) =   2
                l(6) =   2
     Q(r) pseudized with 0 coefficients 


     PseudoPot. # 3 for Mn read from file:
     ./../../../pseudos/Mn.pbe-spn-kjpaw_psl.0.3.1.UPF
     MD5 check sum: ba19e6d7ccbc12830efad05ba8577d9c
     Pseudo is Projector augmented-wave + core cor, Zval = 15.0
     Generated using &quot;atomic&quot; code by A. Dal Corso  v.6.2.2
     Shape of augmentation charge: PSQ
     Using radial grid of 1187 points,  6 beta functions with: 
                l(1) =   0
                l(2) =   0
                l(3) =   1
                l(4) =   1
                l(5) =   2
                l(6) =   2
     Q(r) pseudized with 0 coefficients 


     PseudoPot. # 4 for Mn read from file:
     ./../../../pseudos/Mn.pbe-spn-kjpaw_psl.0.3.1.UPF
     MD5 check sum: ba19e6d7ccbc12830efad05ba8577d9c
     Pseudo is Projector augmented-wave + core cor, Zval = 15.0
     Generated using &quot;atomic&quot; code by A. Dal Corso  v.6.2.2
     Shape of augmentation charge: PSQ
     Using radial grid of 1187 points,  6 beta functions with: 
                l(1) =   0
                l(2) =   0
                l(3) =   1
                l(4) =   1
                l(5) =   2
                l(6) =   2
     Q(r) pseudized with 0 coefficients 


     PseudoPot. # 5 for S  read from file:
     ./../../../pseudos/S.pbe-n-kjpaw_psl.1.0.0.UPF
     MD5 check sum: fb45dfebcf3e72a4e1bd4a866ec2e262
     Pseudo is Projector augmented-wave + core cor, Zval =  6.0
     Generated using &quot;atomic&quot; code by A. Dal Corso  v.6.3
     Shape of augmentation charge: PSQ
     Using radial grid of 1151 points,  6 beta functions with: 
                l(1) =   0
                l(2) =   0
                l(3) =   1
                l(4) =   1
                l(5) =   2
                l(6) =   2
     Q(r) pseudized with 0 coefficients 


     atomic species   valence    mass     pseudopotential
     Mn1              15.00    54.93800     Mn( 1.00)
     Mn2              15.00    54.93800     Mn( 1.00)
     Mn3              15.00    54.93800     Mn( 1.00)
     Mn4              15.00    54.93800     Mn( 1.00)
     S                 6.00    32.06500     S ( 1.00)

     Starting magnetic structure 
     atomic species   magnetization
     Mn1             0.200
     Mn2             0.200
     Mn3             0.200
     Mn4             0.200
     S               0.000

     No symmetry found


                                    s                        frac. trans.

      isym =  1     identity                                     

 cryst.   s( 1) = (     1          0          0      )
                  (     0          1          0      )
                  (     0          0          1      )

 cart.    s( 1) = (  1.0000000  0.0000000  0.0000000 )
                  (  0.0000000  1.0000000  0.0000000 )
                  (  0.0000000  0.0000000  1.0000000 )


   Cartesian axes

     site n.     atom                  positions (alat units)
         1        Mn1    tau(   1) = (   0.7488520   0.4324281   0.3078856  )
         2        Mn2    tau(   2) = (   0.9988442   0.8654359   0.3078921  )
         3        Mn3    tau(   3) = (   1.2488431   0.4324243   0.3078924  )
         4        Mn4    tau(   4) = (   1.4988508   0.8654411   0.3078863  )
         5        S      tau(   5) = (   0.2511523   0.1449243   0.4065456  )
         6        S      tau(   6) = (   0.5011523   0.5779371   0.4065453  )
         7        S      tau(   7) = (   0.7511525   0.1449242   0.4065454  )
         8        S      tau(   8) = (   1.0011524   0.5779370   0.4065455  )

   Crystallographic axes

     site n.     atom                  positions (cryst. coord.)
         1        Mn1    tau(   1) = (  0.3734958  0.3736312  0.7541625  )
         2        Mn2    tau(   2) = (  0.3734882  0.8736229  0.7541784  )
         3        Mn3    tau(   3) = (  0.8734863  0.3736240  0.7541792  )
         4        Mn4    tau(   4) = (  0.8734942  0.8736312  0.7541643  )
         5        S      tau(   5) = (  0.0015087  0.0013726  0.9958292  )
         6        S      tau(   6) = (  0.0015089  0.5013728  0.9958286  )
         7        S      tau(   7) = (  0.5015090  0.0013727  0.9958286  )
         8        S      tau(   8) = (  0.5015088  0.5013726  0.9958291  )

     number of k points=    42  Gaussian smearing, width (Ry)=  0.0100
                       cart. coord. in units 2pi/alat
        k(    1) = (   0.0000000   0.0000000   0.0000000), wk =   0.0125000
        k(    2) = (   0.0000000   0.0000000   0.4898979), wk =   0.0250000
        k(    3) = (   0.0000000   0.0000000   0.9797958), wk =   0.0250000
        k(    4) = (   0.0000000   0.2886751  -0.1020621), wk =   0.0250000
        k(    5) = (   0.0000000   0.2886751   0.3878359), wk =   0.0250000
        k(    6) = (   0.0000000   0.2886751   0.8777338), wk =   0.0250000
        k(    7) = (   0.0000000   0.2886751  -1.0818579), wk =   0.0250000
        k(    8) = (   0.0000000   0.2886751  -0.5919600), wk =   0.0250000
        k(    9) = (   0.0000000  -0.5773502   0.2041241), wk =   0.0125000
        k(   10) = (   0.0000000  -0.5773502   0.6940220), wk =   0.0250000
        k(   11) = (   0.0000000  -0.5773502   1.1839200), wk =   0.0250000
        k(   12) = (   0.2500000   0.1443376  -0.2041241), wk =   0.0250000
        k(   13) = (   0.2500000   0.1443376   0.2857738), wk =   0.0250000
        k(   14) = (   0.2500000   0.1443376   0.7756717), wk =   0.0250000
        k(   15) = (   0.2500000   0.1443376  -1.1839200), wk =   0.0250000
        k(   16) = (   0.2500000   0.1443376  -0.6940220), wk =   0.0250000
        k(   17) = (   0.2500000  -0.7216878   0.1020621), wk =   0.0250000
        k(   18) = (   0.2500000  -0.7216878   0.5919600), wk =   0.0250000
        k(   19) = (   0.2500000  -0.7216878   1.0818579), wk =   0.0250000
        k(   20) = (   0.2500000  -0.7216878  -0.8777338), wk =   0.0250000
        k(   21) = (   0.2500000  -0.7216878  -0.3878359), wk =   0.0250000
        k(   22) = (   0.2500000  -0.4330127   0.0000000), wk =   0.0250000
        k(   23) = (   0.2500000  -0.4330127   0.4898979), wk =   0.0250000
        k(   24) = (   0.2500000  -0.4330127   0.9797959), wk =   0.0250000
        k(   25) = (  -0.5000000  -0.2886752   0.4082482), wk =   0.0125000
        k(   26) = (  -0.5000000  -0.2886752   0.8981462), wk =   0.0250000
        k(   27) = (  -0.5000000  -0.2886752   1.3880441), wk =   0.0250000
        k(   28) = (  -0.2500000   0.1443375   0.1020621), wk =   0.0250000
        k(   29) = (  -0.2500000   0.1443375  -0.3878359), wk =   0.0250000
        k(   30) = (  -0.2500000   0.1443375  -0.8777338), wk =   0.0250000
        k(   31) = (  -0.2500000   0.1443375   1.0818579), wk =   0.0250000
        k(   32) = (  -0.2500000   0.1443375   0.5919600), wk =   0.0250000
        k(   33) = (   0.5000000  -0.2886751  -0.2041241), wk =   0.0125000
        k(   34) = (   0.5000000  -0.2886751  -0.6940220), wk =   0.0250000
        k(   35) = (   0.5000000  -0.2886751  -1.1839200), wk =   0.0250000
        k(   36) = (   0.5000000  -0.5773502  -0.1020621), wk =   0.0250000
        k(   37) = (   0.5000000  -0.5773502  -0.5919600), wk =   0.0250000
        k(   38) = (   0.5000000  -0.5773502  -1.0818579), wk =   0.0250000
        k(   39) = (   0.5000000  -0.5773502   0.8777338), wk =   0.0250000
        k(   40) = (   0.5000000  -0.5773502   0.3878359), wk =   0.0250000
        k(   41) = (   0.2500000  -0.4330127  -0.4898979), wk =   0.0250000
        k(   42) = (   0.2500000  -0.4330127  -0.9797958), wk =   0.0250000

                       cryst. coord.
        k(    1) = (   0.0000000   0.0000000   0.0000000), wk =   0.0125000
        k(    2) = (   0.0000000   0.0000000   0.2000000), wk =   0.0250000
        k(    3) = (   0.0000000   0.0000000   0.4000000), wk =   0.0250000
        k(    4) = (   0.0000000   0.2500000   0.0000000), wk =   0.0250000
        k(    5) = (   0.0000000   0.2500000   0.2000000), wk =   0.0250000
        k(    6) = (   0.0000000   0.2500000   0.4000000), wk =   0.0250000
        k(    7) = (   0.0000000   0.2500000  -0.4000000), wk =   0.0250000
        k(    8) = (   0.0000000   0.2500000  -0.2000000), wk =   0.0250000
        k(    9) = (   0.0000000  -0.5000000   0.0000000), wk =   0.0125000
        k(   10) = (   0.0000000  -0.5000000   0.2000000), wk =   0.0250000
        k(   11) = (   0.0000000  -0.5000000   0.4000000), wk =   0.0250000
        k(   12) = (   0.2500000   0.2500000   0.0000000), wk =   0.0250000
        k(   13) = (   0.2500000   0.2500000   0.2000000), wk =   0.0250000
        k(   14) = (   0.2500000   0.2500000   0.4000000), wk =   0.0250000
        k(   15) = (   0.2500000   0.2500000  -0.4000000), wk =   0.0250000
        k(   16) = (   0.2500000   0.2500000  -0.2000000), wk =   0.0250000
        k(   17) = (   0.2500000  -0.5000000  -0.0000000), wk =   0.0250000
        k(   18) = (   0.2500000  -0.5000000   0.2000000), wk =   0.0250000
        k(   19) = (   0.2500000  -0.5000000   0.4000000), wk =   0.0250000
        k(   20) = (   0.2500000  -0.5000000  -0.4000000), wk =   0.0250000
        k(   21) = (   0.2500000  -0.5000000  -0.2000000), wk =   0.0250000
        k(   22) = (   0.2500000  -0.2500000   0.0000000), wk =   0.0250000
        k(   23) = (   0.2500000  -0.2500000   0.2000000), wk =   0.0250000
        k(   24) = (   0.2500000  -0.2500000   0.4000000), wk =   0.0250000
        k(   25) = (  -0.5000000  -0.5000000  -0.0000000), wk =   0.0125000
        k(   26) = (  -0.5000000  -0.5000000   0.2000000), wk =   0.0250000
        k(   27) = (  -0.5000000  -0.5000000   0.4000000), wk =   0.0250000
        k(   28) = (  -0.2500000   0.0000000  -0.0000000), wk =   0.0250000
        k(   29) = (  -0.2500000   0.0000000  -0.2000000), wk =   0.0250000
        k(   30) = (  -0.2500000   0.0000000  -0.4000000), wk =   0.0250000
        k(   31) = (  -0.2500000   0.0000000   0.4000000), wk =   0.0250000
        k(   32) = (  -0.2500000   0.0000000   0.2000000), wk =   0.0250000
        k(   33) = (   0.5000000   0.0000000   0.0000000), wk =   0.0125000
        k(   34) = (   0.5000000   0.0000000  -0.2000000), wk =   0.0250000
        k(   35) = (   0.5000000   0.0000000  -0.4000000), wk =   0.0250000
        k(   36) = (   0.5000000  -0.2500000   0.0000000), wk =   0.0250000
        k(   37) = (   0.5000000  -0.2500000  -0.2000000), wk =   0.0250000
        k(   38) = (   0.5000000  -0.2500000  -0.4000000), wk =   0.0250000
        k(   39) = (   0.5000000  -0.2500000   0.4000000), wk =   0.0250000
        k(   40) = (   0.5000000  -0.2500000   0.2000000), wk =   0.0250000
        k(   41) = (   0.2500000  -0.2500000  -0.2000000), wk =   0.0250000
        k(   42) = (   0.2500000  -0.2500000  -0.4000000), wk =   0.0250000

     Dense  grid:    35405 G-vectors     FFT dimensions: (  60,  60,  30)

     Smooth grid:    25365 G-vectors     FFT dimensions: (  54,  54,  25)

     Dynamical RAM for                 wfc:       0.40 MB

     Dynamical RAM for     wfc (w. buffer):      34.24 MB

     Dynamical RAM for           str. fact:       0.45 MB

     Dynamical RAM for           local pot:       0.00 MB

     Dynamical RAM for          nlocal pot:       1.16 MB

     Dynamical RAM for                qrad:       9.84 MB

     Dynamical RAM for          rho,v,vnew:       1.36 MB

     Dynamical RAM for               rhoin:       0.45 MB

     Dynamical RAM for            rho*nmix:       2.88 MB

     Dynamical RAM for           G-vectors:       0.37 MB

     Dynamical RAM for          h,s,v(r/c):       0.46 MB

     Dynamical RAM for          <psi|beta>:       0.11 MB

     Dynamical RAM for                 psi:       0.81 MB

     Dynamical RAM for                hpsi:       0.81 MB

     Dynamical RAM for                spsi:       0.81 MB

     Dynamical RAM for      wfcinit/wfcrot:       0.97 MB

     Dynamical RAM for           addusdens:      17.20 MB

     Dynamical RAM for          addusforce:      17.77 MB

     Dynamical RAM for         addusstress:      18.23 MB

     Estimated static dynamical RAM per process >      49.25 MB

     Estimated max dynamical RAM per process >      70.36 MB

     Estimated total dynamical RAM >     422.14 MB

     Check: negative core charge=   -0.000237
     Generating pointlists ...
     new r_m :   0.1253 (alat units)  1.8527 (a.u.) for type    1
     new r_m :   0.1253 (alat units)  1.8527 (a.u.) for type    2
     new r_m :   0.1253 (alat units)  1.8526 (a.u.) for type    3
     new r_m :   0.1253 (alat units)  1.8527 (a.u.) for type    4
     new r_m :   0.1253 (alat units)  1.8526 (a.u.) for type    5

     Initial potential from superposition of free atoms

     starting charge      83.9979, renormalised to      84.0000
     Starting wfcs are   56 randomized atomic wfcs
     Checking if some PAW data can be deallocated... 
       PAW data deallocated on    5 nodes for type:  1
       PAW data deallocated on    5 nodes for type:  2
       PAW data deallocated on    5 nodes for type:  3
       PAW data deallocated on    5 nodes for type:  4
       PAW data deallocated on    2 nodes for type:  5

     total cpu time spent up to now is        6.2 secs

     Self-consistent Calculation

     iteration #  1     ecut=    30.00 Ry     beta= 0.70
     Davidson diagonalization with overlap

---- Real-time Memory Report at c_bands before calling an iterative solver
            90 MiB given to the printing process from OS
             0 MiB allocation reported by mallinfo(arena+hblkhd)
           753 MiB available memory on the node where the printing process lives
------------------
     ethr =  1.00E-02,  avg # of iterations =  2.1

     Threshold (ethr) on eigenvalues was too large:
     Diagonalizing with lowered threshold

     Davidson diagonalization with overlap

---- Real-time Memory Report at c_bands before calling an iterative solver
           106 MiB given to the printing process from OS
             0 MiB allocation reported by mallinfo(arena+hblkhd)
           657 MiB available memory on the node where the printing process lives
------------------
     ethr =  2.95E-04,  avg # of iterations =  4.1

     total cpu time spent up to now is       35.7 secs

     total energy              =   -1410.91116683 Ry
     estimated scf accuracy    <       0.20585182 Ry

     total magnetization       =    15.40 Bohr mag/cell
     absolute magnetization    =    15.40 Bohr mag/cell

     iteration #  2     ecut=    30.00 Ry     beta= 0.70
     Davidson diagonalization with overlap

---- Real-time Memory Report at c_bands before calling an iterative solver
           109 MiB given to the printing process from OS
             0 MiB allocation reported by mallinfo(arena+hblkhd)
           634 MiB available memory on the node where the printing process lives
------------------
     ethr =  2.45E-04,  avg # of iterations =  2.3

     total cpu time spent up to now is       50.1 secs

     total energy              =   -1410.95869879 Ry
     estimated scf accuracy    <       0.02271535 Ry

     total magnetization       =    15.80 Bohr mag/cell
     absolute magnetization    =    15.80 Bohr mag/cell

     iteration #  3     ecut=    30.00 Ry     beta= 0.70
     Davidson diagonalization with overlap

---- Real-time Memory Report at c_bands before calling an iterative solver
           109 MiB given to the printing process from OS
             0 MiB allocation reported by mallinfo(arena+hblkhd)
           631 MiB available memory on the node where the printing process lives
------------------
     c_bands:  1 eigenvalues not converged
     ethr =  2.70E-05,  avg # of iterations =  9.0

     total cpu time spent up to now is       75.3 secs

     total energy              =   -1410.93591618 Ry
     estimated scf accuracy    <       0.32202008 Ry

     total magnetization       =    15.92 Bohr mag/cell
     absolute magnetization    =    15.98 Bohr mag/cell

     iteration #  4     ecut=    30.00 Ry     beta= 0.70
     Davidson diagonalization with overlap

---- Real-time Memory Report at c_bands before calling an iterative solver
           110 MiB given to the printing process from OS
             0 MiB allocation reported by mallinfo(arena+hblkhd)
          1865 MiB available memory on the node where the printing process lives
------------------
     ethr =  2.70E-05,  avg # of iterations = 10.9

     total cpu time spent up to now is       99.1 secs

     total energy              =   -1410.96112376 Ry
     estimated scf accuracy    <       0.18235531 Ry

     total magnetization       =    15.93 Bohr mag/cell
     absolute magnetization    =    15.99 Bohr mag/cell

     iteration #  5     ecut=    30.00 Ry     beta= 0.70
     Davidson diagonalization with overlap

---- Real-time Memory Report at c_bands before calling an iterative solver
           110 MiB given to the printing process from OS
             0 MiB allocation reported by mallinfo(arena+hblkhd)
          1921 MiB available memory on the node where the printing process lives
------------------
     ethr =  2.70E-05,  avg # of iterations =  6.8

     total cpu time spent up to now is      115.8 secs

     total energy              =   -1410.96770045 Ry
     estimated scf accuracy    <       0.02312097 Ry

     total magnetization       =    15.97 Bohr mag/cell
     absolute magnetization    =    16.02 Bohr mag/cell

     iteration #  6     ecut=    30.00 Ry     beta= 0.70
     Davidson diagonalization with overlap

---- Real-time Memory Report at c_bands before calling an iterative solver
           110 MiB given to the printing process from OS
             0 MiB allocation reported by mallinfo(arena+hblkhd)
          1923 MiB available memory on the node where the printing process lives
------------------
     ethr =  2.70E-05,  avg # of iterations =  7.3

     total cpu time spent up to now is      131.6 secs

     total energy              =   -1410.96616528 Ry
     estimated scf accuracy    <       0.12383684 Ry

     total magnetization       =    15.97 Bohr mag/cell
     absolute magnetization    =    16.05 Bohr mag/cell

     iteration #  7     ecut=    30.00 Ry     beta= 0.70
     Davidson diagonalization with overlap

---- Real-time Memory Report at c_bands before calling an iterative solver
           110 MiB given to the printing process from OS
             0 MiB allocation reported by mallinfo(arena+hblkhd)
          1923 MiB available memory on the node where the printing process lives
------------------
     ethr =  2.70E-05,  avg # of iterations =  5.2

     total cpu time spent up to now is      145.1 secs

     total energy              =   -1410.97150386 Ry
     estimated scf accuracy    <       0.00215697 Ry

     total magnetization       =    15.96 Bohr mag/cell
     absolute magnetization    =    16.04 Bohr mag/cell

     iteration #  8     ecut=    30.00 Ry     beta= 0.70
     Davidson diagonalization with overlap

---- Real-time Memory Report at c_bands before calling an iterative solver
           111 MiB given to the printing process from OS
             0 MiB allocation reported by mallinfo(arena+hblkhd)
          1922 MiB available memory on the node where the printing process lives
------------------
     c_bands:  1 eigenvalues not converged
     c_bands:  2 eigenvalues not converged
     ethr =  2.57E-06,  avg # of iterations =  9.4

     total cpu time spent up to now is      164.8 secs

     total energy              =   -1410.97167569 Ry
     estimated scf accuracy    <       0.01163005 Ry

     total magnetization       =    15.97 Bohr mag/cell
     absolute magnetization    =    16.04 Bohr mag/cell

     iteration #  9     ecut=    30.00 Ry     beta= 0.70
     Davidson diagonalization with overlap

---- Real-time Memory Report at c_bands before calling an iterative solver
           111 MiB given to the printing process from OS
             0 MiB allocation reported by mallinfo(arena+hblkhd)
          1920 MiB available memory on the node where the printing process lives
------------------
     c_bands:  1 eigenvalues not converged
     ethr =  2.57E-06,  avg # of iterations =  7.7

     total cpu time spent up to now is      179.8 secs

     total energy              =   -1410.97235759 Ry
     estimated scf accuracy    <       0.00080199 Ry

     total magnetization       =    15.97 Bohr mag/cell
     absolute magnetization    =    16.07 Bohr mag/cell

     iteration # 10     ecut=    30.00 Ry     beta= 0.70
     Davidson diagonalization with overlap

---- Real-time Memory Report at c_bands before calling an iterative solver
           111 MiB given to the printing process from OS
             0 MiB allocation reported by mallinfo(arena+hblkhd)
          1920 MiB available memory on the node where the printing process lives
------------------
     ethr =  9.55E-07,  avg # of iterations =  2.0

     total cpu time spent up to now is      191.1 secs

     total energy              =   -1410.97236189 Ry
     estimated scf accuracy    <       0.00039929 Ry

     total magnetization       =    15.97 Bohr mag/cell
     absolute magnetization    =    16.07 Bohr mag/cell

     iteration # 11     ecut=    30.00 Ry     beta= 0.70
     Davidson diagonalization with overlap

---- Real-time Memory Report at c_bands before calling an iterative solver
           111 MiB given to the printing process from OS
             0 MiB allocation reported by mallinfo(arena+hblkhd)
          1920 MiB available memory on the node where the printing process lives
------------------
     ethr =  4.75E-07,  avg # of iterations =  3.6

     total cpu time spent up to now is      203.5 secs

     total energy              =   -1410.97239698 Ry
     estimated scf accuracy    <       0.00001474 Ry

     total magnetization       =    15.97 Bohr mag/cell
     absolute magnetization    =    16.07 Bohr mag/cell

     iteration # 12     ecut=    30.00 Ry     beta= 0.70
     Davidson diagonalization with overlap

---- Real-time Memory Report at c_bands before calling an iterative solver
           111 MiB given to the printing process from OS
             0 MiB allocation reported by mallinfo(arena+hblkhd)
          1920 MiB available memory on the node where the printing process lives
------------------
     c_bands:  1 eigenvalues not converged
     ethr =  1.76E-08,  avg # of iterations =  8.0

     total cpu time spent up to now is      222.6 secs

     total energy              =   -1410.97240922 Ry
     estimated scf accuracy    <       0.00007340 Ry

     total magnetization       =    15.97 Bohr mag/cell
     absolute magnetization    =    16.08 Bohr mag/cell

     iteration # 13     ecut=    30.00 Ry     beta= 0.70
     Davidson diagonalization with overlap

---- Real-time Memory Report at c_bands before calling an iterative solver
           111 MiB given to the printing process from OS
             0 MiB allocation reported by mallinfo(arena+hblkhd)
          1920 MiB available memory on the node where the printing process lives
------------------
     c_bands:  1 eigenvalues not converged
     ethr =  1.76E-08,  avg # of iterations =  4.0

     total cpu time spent up to now is      235.8 secs

     total energy              =   -1410.97240945 Ry
     estimated scf accuracy    <       0.00003232 Ry

     total magnetization       =    15.97 Bohr mag/cell
     absolute magnetization    =    16.08 Bohr mag/cell

     iteration # 14     ecut=    30.00 Ry     beta= 0.70
     Davidson diagonalization with overlap

---- Real-time Memory Report at c_bands before calling an iterative solver
           111 MiB given to the printing process from OS
             0 MiB allocation reported by mallinfo(arena+hblkhd)
          1918 MiB available memory on the node where the printing process lives
------------------
     ethr =  1.76E-08,  avg # of iterations =  1.7

     total cpu time spent up to now is      246.5 secs

     total energy              =   -1410.97240958 Ry
     estimated scf accuracy    <       0.00001163 Ry

     total magnetization       =    15.97 Bohr mag/cell
     absolute magnetization    =    16.08 Bohr mag/cell

     iteration # 15     ecut=    30.00 Ry     beta= 0.70
     Davidson diagonalization with overlap

---- Real-time Memory Report at c_bands before calling an iterative solver
           111 MiB given to the printing process from OS
             0 MiB allocation reported by mallinfo(arena+hblkhd)
          1918 MiB available memory on the node where the printing process lives
------------------
     ethr =  1.38E-08,  avg # of iterations =  3.3

     total cpu time spent up to now is      258.3 secs

     total energy              =   -1410.97241018 Ry
     estimated scf accuracy    <       0.00000150 Ry

     total magnetization       =    15.97 Bohr mag/cell
     absolute magnetization    =    16.08 Bohr mag/cell

     iteration # 16     ecut=    30.00 Ry     beta= 0.70
     Davidson diagonalization with overlap

---- Real-time Memory Report at c_bands before calling an iterative solver
           111 MiB given to the printing process from OS
             0 MiB allocation reported by mallinfo(arena+hblkhd)
          1919 MiB available memory on the node where the printing process lives
------------------
     ethr =  1.79E-09,  avg # of iterations =  6.2

     total cpu time spent up to now is      272.4 secs

     total energy              =   -1410.97241061 Ry
     estimated scf accuracy    <       0.00000022 Ry

     total magnetization       =    15.97 Bohr mag/cell
     absolute magnetization    =    16.08 Bohr mag/cell

     iteration # 17     ecut=    30.00 Ry     beta= 0.70
     Davidson diagonalization with overlap

---- Real-time Memory Report at c_bands before calling an iterative solver
           111 MiB given to the printing process from OS
             0 MiB allocation reported by mallinfo(arena+hblkhd)
          1919 MiB available memory on the node where the printing process lives
------------------
     c_bands:  1 eigenvalues not converged
     ethr =  2.59E-10,  avg # of iterations =  6.5

     total cpu time spent up to now is      289.2 secs

     total energy              =   -1410.97241065 Ry
     estimated scf accuracy    <       0.00000030 Ry

     total magnetization       =    15.97 Bohr mag/cell
     absolute magnetization    =    16.08 Bohr mag/cell

     iteration # 18     ecut=    30.00 Ry     beta= 0.70
     Davidson diagonalization with overlap

---- Real-time Memory Report at c_bands before calling an iterative solver
           111 MiB given to the printing process from OS
             0 MiB allocation reported by mallinfo(arena+hblkhd)
          1919 MiB available memory on the node where the printing process lives
------------------
     c_bands:  2 eigenvalues not converged
     ethr =  2.59E-10,  avg # of iterations =  7.2

     total cpu time spent up to now is      306.3 secs

     total energy              =   -1410.97241062 Ry
     estimated scf accuracy    <       0.00000122 Ry

     total magnetization       =    15.97 Bohr mag/cell
     absolute magnetization    =    16.08 Bohr mag/cell

     iteration # 19     ecut=    30.00 Ry     beta= 0.70
     Davidson diagonalization with overlap

---- Real-time Memory Report at c_bands before calling an iterative solver
           111 MiB given to the printing process from OS
             0 MiB allocation reported by mallinfo(arena+hblkhd)
          1925 MiB available memory on the node where the printing process lives
------------------
     ethr =  2.59E-10,  avg # of iterations =  5.8

     total cpu time spent up to now is      321.3 secs

     total energy              =   -1410.97241070 Ry
     estimated scf accuracy    <       0.00000024 Ry

     total magnetization       =    15.97 Bohr mag/cell
     absolute magnetization    =    16.08 Bohr mag/cell

     iteration # 20     ecut=    30.00 Ry     beta= 0.70
     Davidson diagonalization with overlap

---- Real-time Memory Report at c_bands before calling an iterative solver
           111 MiB given to the printing process from OS
             0 MiB allocation reported by mallinfo(arena+hblkhd)
          1925 MiB available memory on the node where the printing process lives
------------------
     ethr =  2.59E-10,  avg # of iterations =  4.2

     total cpu time spent up to now is      334.2 secs

     total energy              =   -1410.97241072 Ry
     estimated scf accuracy    <       0.00000008 Ry

     total magnetization       =    15.97 Bohr mag/cell
     absolute magnetization    =    16.08 Bohr mag/cell

     iteration # 21     ecut=    30.00 Ry     beta= 0.70
     Davidson diagonalization with overlap

---- Real-time Memory Report at c_bands before calling an iterative solver
           111 MiB given to the printing process from OS
             0 MiB allocation reported by mallinfo(arena+hblkhd)
          1925 MiB available memory on the node where the printing process lives
------------------
     ethr =  9.78E-11,  avg # of iterations =  4.2

     total cpu time spent up to now is      347.6 secs

     total energy              =   -1410.97241073 Ry
     estimated scf accuracy    <       0.00000002 Ry

     total magnetization       =    15.97 Bohr mag/cell
     absolute magnetization    =    16.08 Bohr mag/cell

     iteration # 22     ecut=    30.00 Ry     beta= 0.70
     Davidson diagonalization with overlap

---- Real-time Memory Report at c_bands before calling an iterative solver
           111 MiB given to the printing process from OS
             0 MiB allocation reported by mallinfo(arena+hblkhd)
          1925 MiB available memory on the node where the printing process lives
------------------
     ethr =  2.39E-11,  avg # of iterations =  4.2

     total cpu time spent up to now is      360.1 secs

     total energy              =   -1410.97241073 Ry
     estimated scf accuracy    <       0.00000002 Ry

     total magnetization       =    15.97 Bohr mag/cell
     absolute magnetization    =    16.08 Bohr mag/cell

     iteration # 23     ecut=    30.00 Ry     beta= 0.70
     Davidson diagonalization with overlap

---- Real-time Memory Report at c_bands before calling an iterative solver
           111 MiB given to the printing process from OS
             0 MiB allocation reported by mallinfo(arena+hblkhd)
          1928 MiB available memory on the node where the printing process lives
------------------
     ethr =  1.81E-11,  avg # of iterations =  2.9

     total cpu time spent up to now is      371.8 secs

     total energy              =   -1410.97241074 Ry
     estimated scf accuracy    <          3.0E-09 Ry

     total magnetization       =    15.97 Bohr mag/cell
     absolute magnetization    =    16.08 Bohr mag/cell

     iteration # 24     ecut=    30.00 Ry     beta= 0.70
     Davidson diagonalization with overlap

---- Real-time Memory Report at c_bands before calling an iterative solver
           111 MiB given to the printing process from OS
             0 MiB allocation reported by mallinfo(arena+hblkhd)
          1928 MiB available memory on the node where the printing process lives
------------------
     ethr =  3.61E-12,  avg # of iterations =  6.9

     total cpu time spent up to now is      386.9 secs

     total energy              =   -1410.97241074 Ry
     estimated scf accuracy    <          1.7E-09 Ry

     total magnetization       =    15.97 Bohr mag/cell
     absolute magnetization    =    16.08 Bohr mag/cell

     iteration # 25     ecut=    30.00 Ry     beta= 0.70
     Davidson diagonalization with overlap

---- Real-time Memory Report at c_bands before calling an iterative solver
           111 MiB given to the printing process from OS
             0 MiB allocation reported by mallinfo(arena+hblkhd)
          1928 MiB available memory on the node where the printing process lives
------------------
     ethr =  1.98E-12,  avg # of iterations =  1.9

     total cpu time spent up to now is      398.5 secs

     total energy              =   -1410.97241074 Ry
     estimated scf accuracy    <          4.2E-10 Ry

     total magnetization       =    15.97 Bohr mag/cell
     absolute magnetization    =    16.08 Bohr mag/cell

     iteration # 26     ecut=    30.00 Ry     beta= 0.70
     Davidson diagonalization with overlap

---- Real-time Memory Report at c_bands before calling an iterative solver
           111 MiB given to the printing process from OS
             0 MiB allocation reported by mallinfo(arena+hblkhd)
          1928 MiB available memory on the node where the printing process lives
------------------
     c_bands:  1 eigenvalues not converged
     ethr =  5.06E-13,  avg # of iterations =  6.6

     total cpu time spent up to now is      413.4 secs

     total energy              =   -1410.97241074 Ry
     estimated scf accuracy    <          1.9E-10 Ry

     total magnetization       =    15.97 Bohr mag/cell
     absolute magnetization    =    16.08 Bohr mag/cell

     iteration # 27     ecut=    30.00 Ry     beta= 0.70
     Davidson diagonalization with overlap

---- Real-time Memory Report at c_bands before calling an iterative solver
           111 MiB given to the printing process from OS
             0 MiB allocation reported by mallinfo(arena+hblkhd)
          1924 MiB available memory on the node where the printing process lives
------------------
     ethr =  2.23E-13,  avg # of iterations =  4.4

     Magnetic moment per site  (integrated on atomic sphere of radius R)
     atom   1 (R=0.125)  charge= 12.8795  magn=  3.5351
     atom   2 (R=0.125)  charge= 12.8794  magn=  3.5350
     atom   3 (R=0.125)  charge= 12.8794  magn=  3.5350
     atom   4 (R=0.125)  charge= 12.8795  magn=  3.5350
     atom   5 (R=0.125)  charge=  4.0496  magn=  0.0003
     atom   6 (R=0.125)  charge=  4.0496  magn=  0.0003
     atom   7 (R=0.125)  charge=  4.0496  magn=  0.0003
     atom   8 (R=0.125)  charge=  4.0496  magn=  0.0003

     total cpu time spent up to now is      426.3 secs

     End of self-consistent calculation

 ------ SPIN UP ------------


          k = 0.0000 0.0000 0.0000 (  3203 PWs)   bands (ev):

   -74.2398 -74.2392 -74.2392 -74.2390 -42.9680 -42.9671 -42.9670 -42.9667
   -42.9624 -42.9620 -42.9614 -42.9599 -42.9593 -42.9587 -42.9586 -42.9576
    -6.3583  -5.6573  -5.6568  -5.4361   1.8078   1.9362   1.9377   2.9100
     2.9458   2.9936   3.1938   3.1966   3.1969   3.1999   3.5101   3.6374
     4.8468   4.8518   4.8819   5.0199   5.0204   5.0435   5.0440   5.1556
     5.3034   5.3051   5.4048   5.9180   6.0429   7.1963   7.1998   7.2326
     7.2377   8.2650

     occupation numbers 
     1.0000   1.0000   1.0000   1.0000   1.0000   1.0000   1.0000   1.0000
     1.0000   1.0000   1.0000   1.0000   1.0000   1.0000   1.0000   1.0000
     1.0000   1.0000   1.0000   1.0000   1.0000   1.0000   1.0000   1.0000
     1.0000   1.0000   1.0000   1.0000   1.0000   1.0000   1.0000   1.0000
     1.0000   1.0000   1.0000   1.0000   1.0000   1.0000   1.0000   1.0000
     1.0000   1.0000   1.0000   1.0000   1.0000   1.0000   1.0000   1.0000
     1.0000   0.0004

          k = 0.0000 0.0000 0.4899 (  3184 PWs)   bands (ev):

   -74.2394 -74.2392 -74.2392 -74.2389 -42.9677 -42.9677 -42.9677 -42.9675
   -42.9623 -42.9617 -42.9612 -42.9597 -42.9596 -42.9591 -42.9583 -42.9574
    -6.1370  -5.5865  -5.5862  -5.5197   2.0783   2.1423   2.1431   2.6129
     3.0099   3.0400   3.0466   3.0477   3.2436   3.2922   3.2952   3.3736
     4.8628   4.8824   4.8851   4.8862   4.8915   5.0319   5.0321   5.0964
     5.3841   5.3852   5.4069   6.2805   6.4845   6.5730   6.5745   6.7607
     6.7642   6.8773

     occupation numbers 
     1.0000   1.0000   1.0000   1.0000   1.0000   1.0000   1.0000   1.0000
     1.0000   1.0000   1.0000   1.0000   1.0000   1.0000   1.0000   1.0000
     1.0000   1.0000   1.0000   1.0000   1.0000   1.0000   1.0000   1.0000
     1.0000   1.0000   1.0000   1.0000   1.0000   1.0000   1.0000   1.0000
     1.0000   1.0000   1.0000   1.0000   1.0000   1.0000   1.0000   1.0000
     1.0000   1.0000   1.0000   1.0000   1.0000   1.0000   1.0000   1.0000
     1.0000   1.0000

          k = 0.0000 0.0000 0.9798 (  3151 PWs)   bands (ev):

   -74.2392 -74.2391 -74.2389 -74.2389 -42.9692 -42.9683 -42.9683 -42.9679
   -42.9619 -42.9611 -42.9608 -42.9602 -42.9595 -42.9592 -42.9578 -42.9578
    -5.7407  -5.6433  -5.4588  -5.4586   1.8981   1.8982   2.0387   2.0689
     3.0952   3.1072   3.1143   3.1782   3.4865   3.4889   3.5221   3.5250
     4.8474   4.8475   4.9778   4.9991   5.0177   5.0336   5.1854   5.1854
     5.3813   5.4068   5.4072   5.5766   6.0607   6.0629   6.1267   6.1297
     7.0742   7.1473

     occupation numbers 
     1.0000   1.0000   1.0000   1.0000   1.0000   1.0000   1.0000   1.0000
     1.0000   1.0000   1.0000   1.0000   1.0000   1.0000   1.0000   1.0000
     1.0000   1.0000   1.0000   1.0000   1.0000   1.0000   1.0000   1.0000
     1.0000   1.0000   1.0000   1.0000   1.0000   1.0000   1.0000   1.0000
     1.0000   1.0000   1.0000   1.0000   1.0000   1.0000   1.0000   1.0000
     1.0000   1.0000   1.0000   1.0000   1.0000   1.0000   1.0000   1.0000
     1.0000   1.0000

          k = 0.0000 0.2887-0.1021 (  3174 PWs)   bands (ev):

   -74.2395 -74.2391 -74.2391 -74.2390 -42.9678 -42.9672 -42.9669 -42.9665
   -42.9622 -42.9614 -42.9614 -42.9599 -42.9593 -42.9587 -42.9585 -42.9576
    -6.2648  -5.7710  -5.6274  -5.4714   1.9454   2.0553   2.0769   2.7738
     2.9933   3.0447   3.0948   3.1735   3.1830   3.2442   3.3553   3.5550
     4.8504   4.8675   4.8714   4.9606   4.9806   4.9993   5.0419   5.1496
     5.3640   5.4236   5.6631   6.1174   6.1254   6.8857   7.0252   7.3928
     7.4165   7.5753

     occupation numbers 
     1.0000   1.0000   1.0000   1.0000   1.0000   1.0000   1.0000   1.0000
     1.0000   1.0000   1.0000   1.0000   1.0000   1.0000   1.0000   1.0000
     1.0000   1.0000   1.0000   1.0000   1.0000   1.0000   1.0000   1.0000
     1.0000   1.0000   1.0000   1.0000   1.0000   1.0000   1.0000   1.0000
     1.0000   1.0000   1.0000   1.0000   1.0000   1.0000   1.0000   1.0000
     1.0000   1.0000   1.0000   1.0000   1.0000   1.0000   1.0000   1.0000
     1.0000   0.9999

          k = 0.0000 0.2887 0.3878 (  3168 PWs)   bands (ev):

   -74.2394 -74.2392 -74.2390 -74.2389 -42.9680 -42.9677 -42.9674 -42.9672
   -42.9622 -42.9615 -42.9612 -42.9599 -42.9592 -42.9587 -42.9586 -42.9577
    -6.1377  -5.6575  -5.5857  -5.4468   2.1726   2.1917   2.2425   2.6054
     2.9194   3.0039   3.0438   3.0497   3.0806   3.2597   3.2943   3.5211
     4.8010   4.8740   4.8759   4.9452   4.9470   5.0014   5.0446   5.0568
     5.3295   5.5039   5.5783   5.8170   6.3359   6.3930   6.5111   7.0758
     7.1926   7.1953

     occupation numbers 
     1.0000   1.0000   1.0000   1.0000   1.0000   1.0000   1.0000   1.0000
     1.0000   1.0000   1.0000   1.0000   1.0000   1.0000   1.0000   1.0000
     1.0000   1.0000   1.0000   1.0000   1.0000   1.0000   1.0000   1.0000
     1.0000   1.0000   1.0000   1.0000   1.0000   1.0000   1.0000   1.0000
     1.0000   1.0000   1.0000   1.0000   1.0000   1.0000   1.0000   1.0000
     1.0000   1.0000   1.0000   1.0000   1.0000   1.0000   1.0000   1.0000
     1.0000   1.0000

          k = 0.0000 0.2887 0.8777 (  3163 PWs)   bands (ev):

   -74.2391 -74.2391 -74.2390 -74.2390 -42.9688 -42.9686 -42.9682 -42.9681
   -42.9620 -42.9612 -42.9610 -42.9601 -42.9593 -42.9592 -42.9583 -42.9579
    -5.7543  -5.5693  -5.5399  -5.4480   2.0394   2.1274   2.1879   2.2121
     2.9040   3.0674   3.1625   3.1633   3.2464   3.2823   3.4474   3.4554
     4.8014   4.8099   4.8910   4.9368   5.0270   5.0399   5.0636   5.0929
     5.3670   5.3675   5.6166   5.7675   5.9457   6.0785   6.3575   6.4663
     6.5114   6.9233

     occupation numbers 
     1.0000   1.0000   1.0000   1.0000   1.0000   1.0000   1.0000   1.0000
     1.0000   1.0000   1.0000   1.0000   1.0000   1.0000   1.0000   1.0000
     1.0000   1.0000   1.0000   1.0000   1.0000   1.0000   1.0000   1.0000
     1.0000   1.0000   1.0000   1.0000   1.0000   1.0000   1.0000   1.0000
     1.0000   1.0000   1.0000   1.0000   1.0000   1.0000   1.0000   1.0000
     1.0000   1.0000   1.0000   1.0000   1.0000   1.0000   1.0000   1.0000
     1.0000   1.0000

          k = 0.0000 0.2887-1.0819 (  3165 PWs)   bands (ev):

   -74.2392 -74.2391 -74.2391 -74.2389 -42.9692 -42.9684 -42.9683 -42.9679
   -42.9616 -42.9610 -42.9610 -42.9604 -42.9593 -42.9591 -42.9582 -42.9581
    -5.6677  -5.6486  -5.5576  -5.4353   1.9076   1.9886   2.0995   2.1169
     3.0082   3.0483   3.1722   3.1883   3.3233   3.4428   3.4635   3.5661
     4.7176   4.9416   4.9634   4.9766   5.0371   5.0375   5.0899   5.1147
     5.2882   5.4450   5.4707   5.8646   5.8903   6.2321   6.2381   6.2777
     6.8339   6.8665

     occupation numbers 
     1.0000   1.0000   1.0000   1.0000   1.0000   1.0000   1.0000   1.0000
     1.0000   1.0000   1.0000   1.0000   1.0000   1.0000   1.0000   1.0000
     1.0000   1.0000   1.0000   1.0000   1.0000   1.0000   1.0000   1.0000
     1.0000   1.0000   1.0000   1.0000   1.0000   1.0000   1.0000   1.0000
     1.0000   1.0000   1.0000   1.0000   1.0000   1.0000   1.0000   1.0000
     1.0000   1.0000   1.0000   1.0000   1.0000   1.0000   1.0000   1.0000
     1.0000   1.0000

          k = 0.0000 0.2887-0.5920 (  3182 PWs)   bands (ev):

   -74.2393 -74.2392 -74.2391 -74.2390 -42.9679 -42.9678 -42.9675 -42.9674
   -42.9620 -42.9613 -42.9611 -42.9602 -42.9596 -42.9588 -42.9584 -42.9578
    -5.9854  -5.7584  -5.6125  -5.4954   2.1747   2.1989   2.3366   2.4370
     2.8512   3.0161   3.0364   3.0985   3.1775   3.2416   3.3449   3.4268
     4.7468   4.8249   4.8340   4.8372   4.9942   5.0193   5.0685   5.0699
     5.3957   5.6761   5.9806   6.0014   6.2241   6.5208   6.6015   6.8712
     6.9006   6.9798

     occupation numbers 
     1.0000   1.0000   1.0000   1.0000   1.0000   1.0000   1.0000   1.0000
     1.0000   1.0000   1.0000   1.0000   1.0000   1.0000   1.0000   1.0000
     1.0000   1.0000   1.0000   1.0000   1.0000   1.0000   1.0000   1.0000
     1.0000   1.0000   1.0000   1.0000   1.0000   1.0000   1.0000   1.0000
     1.0000   1.0000   1.0000   1.0000   1.0000   1.0000   1.0000   1.0000
     1.0000   1.0000   1.0000   1.0000   1.0000   1.0000   1.0000   1.0000
     1.0000   1.0000

          k = 0.0000-0.5774 0.2041 (  3170 PWs)   bands (ev):

   -74.2393 -74.2393 -74.2390 -74.2390 -42.9675 -42.9675 -42.9667 -42.9666
   -42.9617 -42.9617 -42.9606 -42.9606 -42.9591 -42.9591 -42.9581 -42.9581
    -6.0284  -6.0284  -5.5524  -5.5524   2.1588   2.1588   2.4096   2.4096
     3.0503   3.0503   3.0927   3.0928   3.1256   3.1257   3.3942   3.3942
     4.8717   4.8717   4.8896   4.8897   4.8951   4.8951   5.0924   5.0924
     5.4172   5.4172   6.4009   6.4009   6.4882   6.4882   6.5879   6.5880
     7.7907   7.7907

     occupation numbers 
     1.0000   1.0000   1.0000   1.0000   1.0000   1.0000   1.0000   1.0000
     1.0000   1.0000   1.0000   1.0000   1.0000   1.0000   1.0000   1.0000
     1.0000   1.0000   1.0000   1.0000   1.0000   1.0000   1.0000   1.0000
     1.0000   1.0000   1.0000   1.0000   1.0000   1.0000   1.0000   1.0000
     1.0000   1.0000   1.0000   1.0000   1.0000   1.0000   1.0000   1.0000
     1.0000   1.0000   1.0000   1.0000   1.0000   1.0000   1.0000   1.0000
     0.9426   0.9426

          k = 0.0000-0.5774 0.6940 (  3179 PWs)   bands (ev):

   -74.2395 -74.2392 -74.2391 -74.2389 -42.9680 -42.9680 -42.9673 -42.9672
   -42.9616 -42.9615 -42.9609 -42.9605 -42.9591 -42.9589 -42.9585 -42.9583
    -5.9868  -5.7577  -5.6690  -5.4372   2.3169   2.3193   2.3682   2.4572
     2.7453   2.9026   2.9547   3.1242   3.1545   3.1997   3.2631   3.5576
     4.7066   4.8152   4.8345   4.9139   5.0073   5.0111   5.0439   5.0614
     5.2906   5.7221   5.8117   6.0072   6.1984   6.4174   6.4286   6.9099
     7.2375   7.2882

     occupation numbers 
     1.0000   1.0000   1.0000   1.0000   1.0000   1.0000   1.0000   1.0000
     1.0000   1.0000   1.0000   1.0000   1.0000   1.0000   1.0000   1.0000
     1.0000   1.0000   1.0000   1.0000   1.0000   1.0000   1.0000   1.0000
     1.0000   1.0000   1.0000   1.0000   1.0000   1.0000   1.0000   1.0000
     1.0000   1.0000   1.0000   1.0000   1.0000   1.0000   1.0000   1.0000
     1.0000   1.0000   1.0000   1.0000   1.0000   1.0000   1.0000   1.0000
     1.0000   1.0000

          k = 0.0000-0.5774 1.1839 (  3168 PWs)   bands (ev):

   -74.2391 -74.2391 -74.2390 -74.2390 -42.9690 -42.9685 -42.9684 -42.9679
   -42.9615 -42.9613 -42.9609 -42.9606 -42.9588 -42.9588 -42.9586 -42.9586
    -5.6809  -5.6267  -5.5284  -5.4834   2.1156   2.2099   2.2506   2.3428
     2.8106   2.9460   2.9894   3.2027   3.2772   3.2970   3.3113   3.4452
     4.7718   4.8589   4.8650   4.8805   4.9933   5.0542   5.0685   5.1036
     5.3738   5.4627   5.5975   5.9195   5.9843   6.1565   6.4017   6.5165
     6.6888   6.7114

     occupation numbers 
     1.0000   1.0000   1.0000   1.0000   1.0000   1.0000   1.0000   1.0000
     1.0000   1.0000   1.0000   1.0000   1.0000   1.0000   1.0000   1.0000
     1.0000   1.0000   1.0000   1.0000   1.0000   1.0000   1.0000   1.0000
     1.0000   1.0000   1.0000   1.0000   1.0000   1.0000   1.0000   1.0000
     1.0000   1.0000   1.0000   1.0000   1.0000   1.0000   1.0000   1.0000
     1.0000   1.0000   1.0000   1.0000   1.0000   1.0000   1.0000   1.0000
     1.0000   1.0000

          k = 0.2500 0.1443-0.2041 (  3204 PWs)   bands (ev):

   -74.2395 -74.2392 -74.2392 -74.2392 -42.9679 -42.9671 -42.9671 -42.9667
   -42.9621 -42.9616 -42.9612 -42.9600 -42.9596 -42.9591 -42.9586 -42.9576
    -6.2352  -5.6653  -5.6650  -5.5850   1.9269   2.0998   2.1013   2.7387
     2.9788   3.0605   3.0760   3.0786   3.2297   3.2318   3.3717   3.4826
     4.6932   4.8211   4.9006   4.9381   4.9387   5.0085   5.0086   5.0904
     5.4686   5.4694   5.9797   6.2387   6.3461   6.7333   6.7356   7.2775
     7.2811   7.6790

     occupation numbers 
     1.0000   1.0000   1.0000   1.0000   1.0000   1.0000   1.0000   1.0000
     1.0000   1.0000   1.0000   1.0000   1.0000   1.0000   1.0000   1.0000
     1.0000   1.0000   1.0000   1.0000   1.0000   1.0000   1.0000   1.0000
     1.0000   1.0000   1.0000   1.0000   1.0000   1.0000   1.0000   1.0000
     1.0000   1.0000   1.0000   1.0000   1.0000   1.0000   1.0000   1.0000
     1.0000   1.0000   1.0000   1.0000   1.0000   1.0000   1.0000   1.0000
     1.0000   0.9969

          k = 0.2500 0.1443 0.2858 (  3176 PWs)   bands (ev):

   -74.2395 -74.2391 -74.2391 -74.2389 -42.9682 -42.9676 -42.9675 -42.9670
   -42.9621 -42.9617 -42.9612 -42.9600 -42.9595 -42.9590 -42.9585 -42.9574
    -6.2006  -5.5824  -5.5820  -5.4485   2.0614   2.1430   2.1441   2.7185
     2.9902   2.9910   2.9926   3.0118   3.2814   3.2995   3.3023   3.4269
     4.8180   4.8396   4.9085   4.9505   4.9515   5.0242   5.0243   5.0789
     5.3529   5.3539   5.3558   5.9723   6.3415   6.5663   6.5695   6.9295
     6.9323   7.2814

     occupation numbers 
     1.0000   1.0000   1.0000   1.0000   1.0000   1.0000   1.0000   1.0000
     1.0000   1.0000   1.0000   1.0000   1.0000   1.0000   1.0000   1.0000
     1.0000   1.0000   1.0000   1.0000   1.0000   1.0000   1.0000   1.0000
     1.0000   1.0000   1.0000   1.0000   1.0000   1.0000   1.0000   1.0000
     1.0000   1.0000   1.0000   1.0000   1.0000   1.0000   1.0000   1.0000
     1.0000   1.0000   1.0000   1.0000   1.0000   1.0000   1.0000   1.0000
     1.0000   1.0000

          k = 0.2500 0.1443 0.7757 (  3152 PWs)   bands (ev):

   -74.2393 -74.2390 -74.2389 -74.2389 -42.9686 -42.9683 -42.9683 -42.9683
   -42.9617 -42.9613 -42.9610 -42.9604 -42.9595 -42.9592 -42.9580 -42.9577
    -5.8349  -5.5637  -5.4552  -5.4550   2.2319   2.2321   2.2970   2.3157
     2.8364   3.0035   3.0038   3.0045   3.1188   3.2719   3.5139   3.5152
     4.8424   4.8606   4.8608   4.9455   4.9855   5.0382   5.0450   5.0458
     5.3482   5.3492   5.5258   5.8508   5.8509   6.0154   6.2532   6.4258
     6.4269   6.9755

     occupation numbers 
     1.0000   1.0000   1.0000   1.0000   1.0000   1.0000   1.0000   1.0000
     1.0000   1.0000   1.0000   1.0000   1.0000   1.0000   1.0000   1.0000
     1.0000   1.0000   1.0000   1.0000   1.0000   1.0000   1.0000   1.0000
     1.0000   1.0000   1.0000   1.0000   1.0000   1.0000   1.0000   1.0000
     1.0000   1.0000   1.0000   1.0000   1.0000   1.0000   1.0000   1.0000
     1.0000   1.0000   1.0000   1.0000   1.0000   1.0000   1.0000   1.0000
     1.0000   1.0000

          k = 0.2500 0.1443-1.1839 (  3152 PWs)   bands (ev):

   -74.2391 -74.2391 -74.2389 -74.2389 -42.9693 -42.9684 -42.9683 -42.9678
   -42.9614 -42.9610 -42.9609 -42.9606 -42.9595 -42.9593 -42.9579 -42.9577
    -5.7603  -5.6258  -5.4583  -5.4580   1.9380   1.9382   2.0846   2.0890
     3.0316   3.1351   3.1384   3.1663   3.4024   3.4042   3.5347   3.5374
     4.8567   4.8569   4.9494   5.0135   5.0320   5.0331   5.1592   5.1593
     5.3659   5.3701   5.3707   5.6468   6.0390   6.0396   6.1674   6.1690
     6.9356   7.1367

     occupation numbers 
     1.0000   1.0000   1.0000   1.0000   1.0000   1.0000   1.0000   1.0000
     1.0000   1.0000   1.0000   1.0000   1.0000   1.0000   1.0000   1.0000
     1.0000   1.0000   1.0000   1.0000   1.0000   1.0000   1.0000   1.0000
     1.0000   1.0000   1.0000   1.0000   1.0000   1.0000   1.0000   1.0000
     1.0000   1.0000   1.0000   1.0000   1.0000   1.0000   1.0000   1.0000
     1.0000   1.0000   1.0000   1.0000   1.0000   1.0000   1.0000   1.0000
     1.0000   1.0000

          k = 0.2500 0.1443-0.6940 (  3167 PWs)   bands (ev):

   -74.2392 -74.2392 -74.2390 -74.2390 -42.9681 -42.9675 -42.9675 -42.9673
   -42.9618 -42.9611 -42.9609 -42.9603 -42.9596 -42.9593 -42.9580 -42.9578
    -5.8971  -5.7765  -5.5932  -5.5929   2.1602   2.1604   2.2051   2.3181
     3.1035   3.1096   3.1120   3.1121   3.1519   3.1750   3.3973   3.3981
     4.7965   4.8181   4.8209   4.8212   5.0097   5.0593   5.0739   5.0740
     5.6681   5.6681   5.9535   6.1468   6.1474   6.2196   6.7951   6.7957
     7.0145   7.1067

     occupation numbers 
     1.0000   1.0000   1.0000   1.0000   1.0000   1.0000   1.0000   1.0000
     1.0000   1.0000   1.0000   1.0000   1.0000   1.0000   1.0000   1.0000
     1.0000   1.0000   1.0000   1.0000   1.0000   1.0000   1.0000   1.0000
     1.0000   1.0000   1.0000   1.0000   1.0000   1.0000   1.0000   1.0000
     1.0000   1.0000   1.0000   1.0000   1.0000   1.0000   1.0000   1.0000
     1.0000   1.0000   1.0000   1.0000   1.0000   1.0000   1.0000   1.0000
     1.0000   1.0000

          k = 0.2500-0.7217 0.1021 (  3187 PWs)   bands (ev):

   -74.2394 -74.2393 -74.2392 -74.2390 -42.9675 -42.9673 -42.9669 -42.9668
   -42.9616 -42.9614 -42.9608 -42.9607 -42.9597 -42.9590 -42.9584 -42.9578
    -6.0468  -5.8782  -5.7188  -5.5330   2.1205   2.2943   2.3685   2.4644
     2.8055   3.0488   3.0803   3.1416   3.1798   3.1925   3.3365   3.3598
     4.7200   4.7977   4.8178   4.8656   4.9558   4.9598   4.9872   5.0891
     5.5079   6.0723   6.0935   6.1455   6.6599   6.7917   6.8170   6.8585
     6.9492   7.4918

     occupation numbers 
     1.0000   1.0000   1.0000   1.0000   1.0000   1.0000   1.0000   1.0000
     1.0000   1.0000   1.0000   1.0000   1.0000   1.0000   1.0000   1.0000
     1.0000   1.0000   1.0000   1.0000   1.0000   1.0000   1.0000   1.0000
     1.0000   1.0000   1.0000   1.0000   1.0000   1.0000   1.0000   1.0000
     1.0000   1.0000   1.0000   1.0000   1.0000   1.0000   1.0000   1.0000
     1.0000   1.0000   1.0000   1.0000   1.0000   1.0000   1.0000   1.0000
     1.0000   1.0000

          k = 0.2500-0.7217 0.5920 (  3172 PWs)   bands (ev):

   -74.2394 -74.2392 -74.2390 -74.2389 -42.9683 -42.9678 -42.9674 -42.9669
   -42.9616 -42.9615 -42.9610 -42.9605 -42.9594 -42.9588 -42.9585 -42.9577
    -6.0968  -5.7047  -5.5420  -5.4920   2.1791   2.1800   2.2879   2.5394
     2.8770   3.0295   3.0539   3.0627   3.0934   3.2509   3.3428   3.4608
     4.8148   4.8324   4.8929   4.8932   4.9416   4.9859   5.0628   5.0646
     5.4426   5.4463   5.7202   5.9491   6.2111   6.5257   6.6927   6.8651
     6.9332   7.1504

     occupation numbers 
     1.0000   1.0000   1.0000   1.0000   1.0000   1.0000   1.0000   1.0000
     1.0000   1.0000   1.0000   1.0000   1.0000   1.0000   1.0000   1.0000
     1.0000   1.0000   1.0000   1.0000   1.0000   1.0000   1.0000   1.0000
     1.0000   1.0000   1.0000   1.0000   1.0000   1.0000   1.0000   1.0000
     1.0000   1.0000   1.0000   1.0000   1.0000   1.0000   1.0000   1.0000
     1.0000   1.0000   1.0000   1.0000   1.0000   1.0000   1.0000   1.0000
     1.0000   1.0000

          k = 0.2500-0.7217 1.0819 (  3158 PWs)   bands (ev):

   -74.2392 -74.2390 -74.2390 -74.2390 -42.9687 -42.9686 -42.9683 -42.9681
   -42.9615 -42.9612 -42.9609 -42.9607 -42.9593 -42.9591 -42.9583 -42.9579
    -5.8078  -5.5271  -5.4946  -5.4864   2.2875   2.4499   2.4640   2.5571
     2.6144   2.7038   2.7158   3.0381   3.1923   3.3677   3.4296   3.4448
     4.7725   4.8418   4.8730   4.9047   4.9724   4.9826   4.9845   5.0886
     5.5656   5.5812   5.6752   5.7650   5.7840   5.8463   6.2370   6.6356
     6.6555   6.6620

     occupation numbers 
     1.0000   1.0000   1.0000   1.0000   1.0000   1.0000   1.0000   1.0000
     1.0000   1.0000   1.0000   1.0000   1.0000   1.0000   1.0000   1.0000
     1.0000   1.0000   1.0000   1.0000   1.0000   1.0000   1.0000   1.0000
     1.0000   1.0000   1.0000   1.0000   1.0000   1.0000   1.0000   1.0000
     1.0000   1.0000   1.0000   1.0000   1.0000   1.0000   1.0000   1.0000
     1.0000   1.0000   1.0000   1.0000   1.0000   1.0000   1.0000   1.0000
     1.0000   1.0000

          k = 0.2500-0.7217-0.8777 (  3166 PWs)   bands (ev):

   -74.2392 -74.2391 -74.2390 -74.2390 -42.9691 -42.9684 -42.9683 -42.9679
   -42.9614 -42.9611 -42.9611 -42.9607 -42.9593 -42.9592 -42.9582 -42.9579
    -5.7696  -5.5576  -5.5330  -5.4530   2.1078   2.2016   2.2058   2.2735
     2.8415   3.0481   3.0725   3.1415   3.1843   3.2834   3.4414   3.4524
     4.7794   4.8442   4.8532   4.9247   5.0211   5.0378   5.0680   5.0896
     5.4062   5.4075   5.5874   5.8416   5.9143   6.0047   6.3515   6.4130
     6.5700   6.8873

     occupation numbers 
     1.0000   1.0000   1.0000   1.0000   1.0000   1.0000   1.0000   1.0000
     1.0000   1.0000   1.0000   1.0000   1.0000   1.0000   1.0000   1.0000
     1.0000   1.0000   1.0000   1.0000   1.0000   1.0000   1.0000   1.0000
     1.0000   1.0000   1.0000   1.0000   1.0000   1.0000   1.0000   1.0000
     1.0000   1.0000   1.0000   1.0000   1.0000   1.0000   1.0000   1.0000
     1.0000   1.0000   1.0000   1.0000   1.0000   1.0000   1.0000   1.0000
     1.0000   1.0000

          k = 0.2500-0.7217-0.3878 (  3182 PWs)   bands (ev):

   -74.2393 -74.2393 -74.2391 -74.2390 -42.9682 -42.9677 -42.9675 -42.9671
   -42.9614 -42.9612 -42.9610 -42.9606 -42.9596 -42.9592 -42.9581 -42.9581
    -5.8832  -5.7786  -5.7191  -5.4785   2.1768   2.2497   2.3375   2.3630
     2.8421   3.0144   3.0370   3.1618   3.1898   3.2417   3.2683   3.4865
     4.7077   4.8057   4.8135   4.8532   4.9950   5.0156   5.0629   5.0665
     5.4313   5.8225   5.9191   6.1887   6.2620   6.4790   6.5508   6.6931
     6.8525   7.0478

     occupation numbers 
     1.0000   1.0000   1.0000   1.0000   1.0000   1.0000   1.0000   1.0000
     1.0000   1.0000   1.0000   1.0000   1.0000   1.0000   1.0000   1.0000
     1.0000   1.0000   1.0000   1.0000   1.0000   1.0000   1.0000   1.0000
     1.0000   1.0000   1.0000   1.0000   1.0000   1.0000   1.0000   1.0000
     1.0000   1.0000   1.0000   1.0000   1.0000   1.0000   1.0000   1.0000
     1.0000   1.0000   1.0000   1.0000   1.0000   1.0000   1.0000   1.0000
     1.0000   1.0000

          k = 0.2500-0.4330 0.0000 (  3161 PWs)   bands (ev):

   -74.2394 -74.2391 -74.2391 -74.2389 -42.9677 -42.9670 -42.9670 -42.9665
   -42.9620 -42.9614 -42.9610 -42.9599 -42.9592 -42.9586 -42.9584 -42.9582
    -6.1235  -5.7936  -5.7932  -5.4507   2.1938   2.1954   2.2202   2.5616
     3.0291   3.0430   3.1042   3.1056   3.1073   3.2265   3.2286   3.4927
     4.7821   4.8311   4.8456   4.8460   4.9443   5.0353   5.0628   5.0634
     5.4031   5.8975   5.8989   5.9325   6.3819   7.0780   7.1534   7.1568
     7.2898   7.2916

     occupation numbers 
     1.0000   1.0000   1.0000   1.0000   1.0000   1.0000   1.0000   1.0000
     1.0000   1.0000   1.0000   1.0000   1.0000   1.0000   1.0000   1.0000
     1.0000   1.0000   1.0000   1.0000   1.0000   1.0000   1.0000   1.0000
     1.0000   1.0000   1.0000   1.0000   1.0000   1.0000   1.0000   1.0000
     1.0000   1.0000   1.0000   1.0000   1.0000   1.0000   1.0000   1.0000
     1.0000   1.0000   1.0000   1.0000   1.0000   1.0000   1.0000   1.0000
     1.0000   1.0000

          k = 0.2500-0.4330 0.4899 (  3179 PWs)   bands (ev):

   -74.2394 -74.2393 -74.2390 -74.2390 -42.9681 -42.9677 -42.9676 -42.9671
   -42.9620 -42.9612 -42.9611 -42.9602 -42.9591 -42.9590 -42.9584 -42.9583
    -5.9378  -5.8760  -5.5496  -5.4867   2.3251   2.3500   2.3725   2.4147
     2.7705   2.8000   3.0597   3.0968   3.1557   3.1782   3.3723   3.4661
     4.7553   4.7877   4.8706   4.8750   4.9743   4.9978   5.0040   5.0271
     5.4978   5.6474   5.7977   5.9347   6.3179   6.5558   6.5964   6.7773
     6.8514   7.0288

     occupation numbers 
     1.0000   1.0000   1.0000   1.0000   1.0000   1.0000   1.0000   1.0000
     1.0000   1.0000   1.0000   1.0000   1.0000   1.0000   1.0000   1.0000
     1.0000   1.0000   1.0000   1.0000   1.0000   1.0000   1.0000   1.0000
     1.0000   1.0000   1.0000   1.0000   1.0000   1.0000   1.0000   1.0000
     1.0000   1.0000   1.0000   1.0000   1.0000   1.0000   1.0000   1.0000
     1.0000   1.0000   1.0000   1.0000   1.0000   1.0000   1.0000   1.0000
     1.0000   1.0000

          k = 0.2500-0.4330 0.9798 (  3161 PWs)   bands (ev):

   -74.2392 -74.2391 -74.2390 -74.2390 -42.9689 -42.9687 -42.9681 -42.9679
   -42.9615 -42.9611 -42.9610 -42.9605 -42.9588 -42.9588 -42.9587 -42.9586
    -5.6875  -5.6120  -5.5412  -5.4784   2.0998   2.2349   2.2543   2.3460
     2.8097   2.9127   2.9704   3.2125   3.2761   3.3174   3.3212   3.4613
     4.7373   4.8843   4.8909   4.9084   4.9875   5.0587   5.0603   5.1096
     5.4037   5.4925   5.5689   5.9076   6.0219   6.1706   6.3564   6.4992
     6.5939   6.7257

     occupation numbers 
     1.0000   1.0000   1.0000   1.0000   1.0000   1.0000   1.0000   1.0000
     1.0000   1.0000   1.0000   1.0000   1.0000   1.0000   1.0000   1.0000
     1.0000   1.0000   1.0000   1.0000   1.0000   1.0000   1.0000   1.0000
     1.0000   1.0000   1.0000   1.0000   1.0000   1.0000   1.0000   1.0000
     1.0000   1.0000   1.0000   1.0000   1.0000   1.0000   1.0000   1.0000
     1.0000   1.0000   1.0000   1.0000   1.0000   1.0000   1.0000   1.0000
     1.0000   1.0000

          k =-0.5000-0.2887 0.4082 (  3218 PWs)   bands (ev):

   -74.2396 -74.2396 -74.2391 -74.2391 -42.9674 -42.9674 -42.9670 -42.9670
   -42.9615 -42.9615 -42.9610 -42.9609 -42.9596 -42.9596 -42.9581 -42.9581
    -5.9241  -5.9239  -5.6726  -5.6723   2.2826   2.2828   2.3362   2.3365
     2.9109   2.9111   3.1237   3.1240   3.2138   3.2140   3.2757   3.2760
     4.6422   4.6423   4.8407   4.8407   4.9926   4.9927   5.0301   5.0302
     5.8348   5.8348   6.1496   6.1497   6.8525   6.8526   7.0045   7.0045
     7.0931   7.0931

     occupation numbers 
     1.0000   1.0000   1.0000   1.0000   1.0000   1.0000   1.0000   1.0000
     1.0000   1.0000   1.0000   1.0000   1.0000   1.0000   1.0000   1.0000
     1.0000   1.0000   1.0000   1.0000   1.0000   1.0000   1.0000   1.0000
     1.0000   1.0000   1.0000   1.0000   1.0000   1.0000   1.0000   1.0000
     1.0000   1.0000   1.0000   1.0000   1.0000   1.0000   1.0000   1.0000
     1.0000   1.0000   1.0000   1.0000   1.0000   1.0000   1.0000   1.0000
     1.0000   1.0000

          k =-0.5000-0.2887 0.8981 (  3180 PWs)   bands (ev):

   -74.2394 -74.2391 -74.2391 -74.2391 -42.9684 -42.9677 -42.9676 -42.9669
   -42.9615 -42.9612 -42.9609 -42.9608 -42.9596 -42.9593 -42.9583 -42.9575
    -6.0556  -5.6100  -5.5899  -5.5896   2.1132   2.1551   2.1556   2.4735
     3.0508   3.0717   3.0721   3.0909   3.1720   3.2768   3.3407   3.3434
     4.8346   4.8581   4.8589   4.8668   4.9158   5.0725   5.0727   5.1006
     5.4754   5.4761   5.6016   6.4371   6.4380   6.5507   6.5933   6.6642
     6.7467   6.7495

     occupation numbers 
     1.0000   1.0000   1.0000   1.0000   1.0000   1.0000   1.0000   1.0000
     1.0000   1.0000   1.0000   1.0000   1.0000   1.0000   1.0000   1.0000
     1.0000   1.0000   1.0000   1.0000   1.0000   1.0000   1.0000   1.0000
     1.0000   1.0000   1.0000   1.0000   1.0000   1.0000   1.0000   1.0000
     1.0000   1.0000   1.0000   1.0000   1.0000   1.0000   1.0000   1.0000
     1.0000   1.0000   1.0000   1.0000   1.0000   1.0000   1.0000   1.0000
     1.0000   1.0000

          k =-0.5000-0.2887 1.3880 (  3157 PWs)   bands (ev):

   -74.2392 -74.2390 -74.2389 -74.2389 -42.9689 -42.9684 -42.9683 -42.9681
   -42.9612 -42.9611 -42.9609 -42.9609 -42.9595 -42.9593 -42.9581 -42.9576
    -5.8436  -5.5575  -5.4547  -5.4545   2.3278   2.3381   2.3383   2.4141
     2.7362   2.8656   2.8659   2.9951   3.1365   3.2648   3.5174   3.5188
     4.8150   4.8589   4.8592   4.9203   4.9682   5.0261   5.0270   5.0569
     5.3649   5.3659   5.6074   5.8032   5.8033   6.0976   6.1246   6.4562
     6.4572   6.8170

     occupation numbers 
     1.0000   1.0000   1.0000   1.0000   1.0000   1.0000   1.0000   1.0000
     1.0000   1.0000   1.0000   1.0000   1.0000   1.0000   1.0000   1.0000
     1.0000   1.0000   1.0000   1.0000   1.0000   1.0000   1.0000   1.0000
     1.0000   1.0000   1.0000   1.0000   1.0000   1.0000   1.0000   1.0000
     1.0000   1.0000   1.0000   1.0000   1.0000   1.0000   1.0000   1.0000
     1.0000   1.0000   1.0000   1.0000   1.0000   1.0000   1.0000   1.0000
     1.0000   1.0000

          k =-0.2500 0.1443 0.1021 (  3174 PWs)   bands (ev):

   -74.2395 -74.2391 -74.2391 -74.2390 -42.9678 -42.9672 -42.9669 -42.9665
   -42.9623 -42.9619 -42.9609 -42.9597 -42.9590 -42.9588 -42.9586 -42.9577
    -6.2648  -5.7707  -5.6278  -5.4714   1.9455   2.0568   2.0753   2.7715
     2.9957   3.0452   3.0917   3.1765   3.1855   3.2417   3.3545   3.5544
     4.8513   4.8674   4.8714   4.9609   4.9808   4.9987   5.0424   5.1497
     5.3654   5.4244   5.6618   6.1179   6.1249   6.8879   7.0296   7.3897
     7.4123   7.5766

     occupation numbers 
     1.0000   1.0000   1.0000   1.0000   1.0000   1.0000   1.0000   1.0000
     1.0000   1.0000   1.0000   1.0000   1.0000   1.0000   1.0000   1.0000
     1.0000   1.0000   1.0000   1.0000   1.0000   1.0000   1.0000   1.0000
     1.0000   1.0000   1.0000   1.0000   1.0000   1.0000   1.0000   1.0000
     1.0000   1.0000   1.0000   1.0000   1.0000   1.0000   1.0000   1.0000
     1.0000   1.0000   1.0000   1.0000   1.0000   1.0000   1.0000   1.0000
     1.0000   0.9999

          k =-0.2500 0.1443-0.3878 (  3168 PWs)   bands (ev):

   -74.2394 -74.2392 -74.2390 -74.2389 -42.9680 -42.9677 -42.9674 -42.9672
   -42.9622 -42.9617 -42.9610 -42.9599 -42.9592 -42.9588 -42.9586 -42.9576
    -6.1377  -5.6578  -5.5854  -5.4468   2.1726   2.1930   2.2412   2.6060
     2.9218   3.0015   3.0421   3.0506   3.0811   3.2572   3.2969   3.5211
     4.8010   4.8735   4.8761   4.9453   4.9471   4.9999   5.0454   5.0569
     5.3294   5.5030   5.5796   5.8168   6.3335   6.3930   6.5142   7.0732
     7.1947   7.1956

     occupation numbers 
     1.0000   1.0000   1.0000   1.0000   1.0000   1.0000   1.0000   1.0000
     1.0000   1.0000   1.0000   1.0000   1.0000   1.0000   1.0000   1.0000
     1.0000   1.0000   1.0000   1.0000   1.0000   1.0000   1.0000   1.0000
     1.0000   1.0000   1.0000   1.0000   1.0000   1.0000   1.0000   1.0000
     1.0000   1.0000   1.0000   1.0000   1.0000   1.0000   1.0000   1.0000
     1.0000   1.0000   1.0000   1.0000   1.0000   1.0000   1.0000   1.0000
     1.0000   1.0000

          k =-0.2500 0.1443-0.8777 (  3163 PWs)   bands (ev):

   -74.2391 -74.2391 -74.2390 -74.2390 -42.9688 -42.9686 -42.9681 -42.9681
   -42.9619 -42.9612 -42.9610 -42.9601 -42.9594 -42.9590 -42.9583 -42.9579
    -5.7543  -5.5693  -5.5400  -5.4479   2.0396   2.1280   2.1882   2.2124
     2.9038   3.0656   3.1603   3.1642   3.2446   3.2826   3.4499   3.4556
     4.8020   4.8104   4.8908   4.9365   5.0275   5.0401   5.0641   5.0933
     5.3656   5.3673   5.6180   5.7683   5.9464   6.0787   6.3554   6.4649
     6.5110   6.9239

     occupation numbers 
     1.0000   1.0000   1.0000   1.0000   1.0000   1.0000   1.0000   1.0000
     1.0000   1.0000   1.0000   1.0000   1.0000   1.0000   1.0000   1.0000
     1.0000   1.0000   1.0000   1.0000   1.0000   1.0000   1.0000   1.0000
     1.0000   1.0000   1.0000   1.0000   1.0000   1.0000   1.0000   1.0000
     1.0000   1.0000   1.0000   1.0000   1.0000   1.0000   1.0000   1.0000
     1.0000   1.0000   1.0000   1.0000   1.0000   1.0000   1.0000   1.0000
     1.0000   1.0000

          k =-0.2500 0.1443 1.0819 (  3165 PWs)   bands (ev):

   -74.2392 -74.2391 -74.2391 -74.2389 -42.9692 -42.9684 -42.9683 -42.9679
   -42.9617 -42.9612 -42.9608 -42.9603 -42.9593 -42.9592 -42.9582 -42.9581
    -5.6677  -5.6485  -5.5576  -5.4353   1.9077   1.9887   2.0995   2.1170
     3.0083   3.0480   3.1728   3.1879   3.3227   3.4456   3.4605   3.5666
     4.7178   4.9420   4.9628   4.9773   5.0362   5.0385   5.0899   5.1147
     5.2879   5.4446   5.4712   5.8646   5.8906   6.2319   6.2404   6.2752
     6.8326   6.8677

     occupation numbers 
     1.0000   1.0000   1.0000   1.0000   1.0000   1.0000   1.0000   1.0000
     1.0000   1.0000   1.0000   1.0000   1.0000   1.0000   1.0000   1.0000
     1.0000   1.0000   1.0000   1.0000   1.0000   1.0000   1.0000   1.0000
     1.0000   1.0000   1.0000   1.0000   1.0000   1.0000   1.0000   1.0000
     1.0000   1.0000   1.0000   1.0000   1.0000   1.0000   1.0000   1.0000
     1.0000   1.0000   1.0000   1.0000   1.0000   1.0000   1.0000   1.0000
     1.0000   1.0000

          k =-0.2500 0.1443 0.5920 (  3182 PWs)   bands (ev):

   -74.2393 -74.2392 -74.2391 -74.2390 -42.9679 -42.9678 -42.9675 -42.9674
   -42.9621 -42.9617 -42.9607 -42.9600 -42.9592 -42.9592 -42.9583 -42.9580
    -5.9853  -5.7583  -5.6126  -5.4956   2.1741   2.1992   2.3371   2.4359
     2.8505   3.0174   3.0350   3.0997   3.1773   3.2445   3.3444   3.4248
     4.7462   4.8254   4.8341   4.8373   4.9936   5.0201   5.0685   5.0706
     5.3964   5.6773   5.9803   6.0016   6.2252   6.5201   6.6035   6.8681
     6.9004   6.9794

     occupation numbers 
     1.0000   1.0000   1.0000   1.0000   1.0000   1.0000   1.0000   1.0000
     1.0000   1.0000   1.0000   1.0000   1.0000   1.0000   1.0000   1.0000
     1.0000   1.0000   1.0000   1.0000   1.0000   1.0000   1.0000   1.0000
     1.0000   1.0000   1.0000   1.0000   1.0000   1.0000   1.0000   1.0000
     1.0000   1.0000   1.0000   1.0000   1.0000   1.0000   1.0000   1.0000
     1.0000   1.0000   1.0000   1.0000   1.0000   1.0000   1.0000   1.0000
     1.0000   1.0000

          k = 0.5000-0.2887-0.2041 (  3170 PWs)   bands (ev):

   -74.2393 -74.2393 -74.2390 -74.2390 -42.9675 -42.9675 -42.9667 -42.9666
   -42.9619 -42.9619 -42.9602 -42.9602 -42.9589 -42.9588 -42.9585 -42.9585
    -6.0282  -6.0282  -5.5526  -5.5526   2.1597   2.1597   2.4076   2.4076
     3.0480   3.0480   3.0956   3.0956   3.1271   3.1271   3.3925   3.3925
     4.8730   4.8730   4.8895   4.8895   4.8946   4.8946   5.0928   5.0928
     5.4185   5.4185   6.4008   6.4009   6.4881   6.4881   6.5904   6.5904
     7.7882   7.7882

     occupation numbers 
     1.0000   1.0000   1.0000   1.0000   1.0000   1.0000   1.0000   1.0000
     1.0000   1.0000   1.0000   1.0000   1.0000   1.0000   1.0000   1.0000
     1.0000   1.0000   1.0000   1.0000   1.0000   1.0000   1.0000   1.0000
     1.0000   1.0000   1.0000   1.0000   1.0000   1.0000   1.0000   1.0000
     1.0000   1.0000   1.0000   1.0000   1.0000   1.0000   1.0000   1.0000
     1.0000   1.0000   1.0000   1.0000   1.0000   1.0000   1.0000   1.0000
     0.9455   0.9455

          k = 0.5000-0.2887-0.6940 (  3179 PWs)   bands (ev):

   -74.2395 -74.2392 -74.2391 -74.2389 -42.9680 -42.9680 -42.9674 -42.9672
   -42.9618 -42.9617 -42.9605 -42.9603 -42.9590 -42.9587 -42.9587 -42.9586
    -5.9867  -5.7575  -5.6692  -5.4373   2.3154   2.3207   2.3679   2.4574
     2.7448   2.9001   2.9572   3.1266   3.1529   3.2017   3.2611   3.5571
     4.7065   4.8152   4.8346   4.9137   5.0084   5.0110   5.0449   5.0605
     5.2907   5.7219   5.8136   6.0057   6.1999   6.4153   6.4289   6.9103
     7.2352   7.2896

     occupation numbers 
     1.0000   1.0000   1.0000   1.0000   1.0000   1.0000   1.0000   1.0000
     1.0000   1.0000   1.0000   1.0000   1.0000   1.0000   1.0000   1.0000
     1.0000   1.0000   1.0000   1.0000   1.0000   1.0000   1.0000   1.0000
     1.0000   1.0000   1.0000   1.0000   1.0000   1.0000   1.0000   1.0000
     1.0000   1.0000   1.0000   1.0000   1.0000   1.0000   1.0000   1.0000
     1.0000   1.0000   1.0000   1.0000   1.0000   1.0000   1.0000   1.0000
     1.0000   1.0000

          k = 0.5000-0.2887-1.1839 (  3168 PWs)   bands (ev):

   -74.2391 -74.2391 -74.2390 -74.2390 -42.9690 -42.9685 -42.9684 -42.9679
   -42.9615 -42.9614 -42.9606 -42.9605 -42.9588 -42.9588 -42.9587 -42.9586
    -5.6809  -5.6268  -5.5283  -5.4833   2.1159   2.2104   2.2512   2.3438
     2.8092   2.9448   2.9875   3.2000   3.2788   3.2971   3.3126   3.4460
     4.7720   4.8589   4.8654   4.8802   4.9938   5.0545   5.0694   5.1040
     5.3734   5.4621   5.5988   5.9211   5.9835   6.1555   6.4021   6.5160
     6.6882   6.7110

     occupation numbers 
     1.0000   1.0000   1.0000   1.0000   1.0000   1.0000   1.0000   1.0000
     1.0000   1.0000   1.0000   1.0000   1.0000   1.0000   1.0000   1.0000
     1.0000   1.0000   1.0000   1.0000   1.0000   1.0000   1.0000   1.0000
     1.0000   1.0000   1.0000   1.0000   1.0000   1.0000   1.0000   1.0000
     1.0000   1.0000   1.0000   1.0000   1.0000   1.0000   1.0000   1.0000
     1.0000   1.0000   1.0000   1.0000   1.0000   1.0000   1.0000   1.0000
     1.0000   1.0000

          k = 0.5000-0.5774-0.1021 (  3187 PWs)   bands (ev):

   -74.2394 -74.2393 -74.2392 -74.2390 -42.9675 -42.9674 -42.9668 -42.9668
   -42.9618 -42.9617 -42.9605 -42.9604 -42.9595 -42.9593 -42.9583 -42.9580
    -6.0467  -5.8780  -5.7189  -5.5331   2.1211   2.2932   2.3702   2.4628
     2.8030   3.0513   3.0820   3.1426   3.1808   3.1909   3.3353   3.3586
     4.7207   4.7975   4.8175   4.8665   4.9562   4.9594   4.9873   5.0894
     5.5079   6.0729   6.0952   6.1457   6.6615   6.7914   6.8169   6.8602
     6.9474   7.4902

     occupation numbers 
     1.0000   1.0000   1.0000   1.0000   1.0000   1.0000   1.0000   1.0000
     1.0000   1.0000   1.0000   1.0000   1.0000   1.0000   1.0000   1.0000
     1.0000   1.0000   1.0000   1.0000   1.0000   1.0000   1.0000   1.0000
     1.0000   1.0000   1.0000   1.0000   1.0000   1.0000   1.0000   1.0000
     1.0000   1.0000   1.0000   1.0000   1.0000   1.0000   1.0000   1.0000
     1.0000   1.0000   1.0000   1.0000   1.0000   1.0000   1.0000   1.0000
     1.0000   1.0000

          k = 0.5000-0.5774-0.5920 (  3172 PWs)   bands (ev):

   -74.2394 -74.2392 -74.2390 -74.2389 -42.9683 -42.9678 -42.9675 -42.9669
   -42.9618 -42.9617 -42.9606 -42.9604 -42.9593 -42.9591 -42.9584 -42.9578
    -6.0968  -5.7044  -5.5423  -5.4920   2.1789   2.1792   2.2890   2.5384
     2.8751   3.0317   3.0529   3.0644   3.0930   3.2536   3.3402   3.4605
     4.8148   4.8319   4.8937   4.8942   4.9414   4.9861   5.0632   5.0642
     5.4430   5.4472   5.7192   5.9498   6.2127   6.5255   6.6895   6.8678
     6.9327   7.1487

     occupation numbers 
     1.0000   1.0000   1.0000   1.0000   1.0000   1.0000   1.0000   1.0000
     1.0000   1.0000   1.0000   1.0000   1.0000   1.0000   1.0000   1.0000
     1.0000   1.0000   1.0000   1.0000   1.0000   1.0000   1.0000   1.0000
     1.0000   1.0000   1.0000   1.0000   1.0000   1.0000   1.0000   1.0000
     1.0000   1.0000   1.0000   1.0000   1.0000   1.0000   1.0000   1.0000
     1.0000   1.0000   1.0000   1.0000   1.0000   1.0000   1.0000   1.0000
     1.0000   1.0000

          k = 0.5000-0.5774-1.0819 (  3158 PWs)   bands (ev):

   -74.2392 -74.2390 -74.2390 -74.2390 -42.9687 -42.9686 -42.9683 -42.9681
   -42.9615 -42.9614 -42.9606 -42.9606 -42.9594 -42.9591 -42.9583 -42.9579
    -5.8078  -5.5271  -5.4947  -5.4863   2.2876   2.4501   2.4646   2.5576
     2.6143   2.7036   2.7145   3.0379   3.1923   3.3676   3.4309   3.4438
     4.7725   4.8412   4.8738   4.9047   4.9727   4.9826   4.9844   5.0887
     5.5672   5.5796   5.6755   5.7652   5.7838   5.8458   6.2374   6.6352
     6.6546   6.6626

     occupation numbers 
     1.0000   1.0000   1.0000   1.0000   1.0000   1.0000   1.0000   1.0000
     1.0000   1.0000   1.0000   1.0000   1.0000   1.0000   1.0000   1.0000
     1.0000   1.0000   1.0000   1.0000   1.0000   1.0000   1.0000   1.0000
     1.0000   1.0000   1.0000   1.0000   1.0000   1.0000   1.0000   1.0000
     1.0000   1.0000   1.0000   1.0000   1.0000   1.0000   1.0000   1.0000
     1.0000   1.0000   1.0000   1.0000   1.0000   1.0000   1.0000   1.0000
     1.0000   1.0000

          k = 0.5000-0.5774 0.8777 (  3166 PWs)   bands (ev):

   -74.2392 -74.2391 -74.2390 -74.2390 -42.9691 -42.9685 -42.9683 -42.9679
   -42.9613 -42.9611 -42.9610 -42.9607 -42.9594 -42.9592 -42.9583 -42.9579
    -5.7696  -5.5576  -5.5331  -5.4529   2.1080   2.2019   2.2066   2.2738
     2.8412   3.0462   3.0707   3.1401   3.1853   3.2837   3.4409   3.4547
     4.7797   4.8441   4.8537   4.9245   5.0212   5.0381   5.0683   5.0902
     5.4047   5.4075   5.5888   5.8424   5.9148   6.0049   6.3502   6.4111
     6.5698   6.8877

     occupation numbers 
     1.0000   1.0000   1.0000   1.0000   1.0000   1.0000   1.0000   1.0000
     1.0000   1.0000   1.0000   1.0000   1.0000   1.0000   1.0000   1.0000
     1.0000   1.0000   1.0000   1.0000   1.0000   1.0000   1.0000   1.0000
     1.0000   1.0000   1.0000   1.0000   1.0000   1.0000   1.0000   1.0000
     1.0000   1.0000   1.0000   1.0000   1.0000   1.0000   1.0000   1.0000
     1.0000   1.0000   1.0000   1.0000   1.0000   1.0000   1.0000   1.0000
     1.0000   1.0000

          k = 0.5000-0.5774 0.3878 (  3182 PWs)   bands (ev):

   -74.2393 -74.2393 -74.2391 -74.2390 -42.9682 -42.9677 -42.9676 -42.9671
   -42.9614 -42.9614 -42.9609 -42.9605 -42.9596 -42.9592 -42.9583 -42.9580
    -5.8833  -5.7786  -5.7190  -5.4784   2.1771   2.2492   2.3384   2.3629
     2.8423   3.0157   3.0357   3.1606   3.1904   3.2426   3.2664   3.4874
     4.7081   4.8057   4.8136   4.8534   4.9941   5.0162   5.0629   5.0658
     5.4310   5.8225   5.9178   6.1885   6.2631   6.4777   6.5499   6.6944
     6.8538   7.0485

     occupation numbers 
     1.0000   1.0000   1.0000   1.0000   1.0000   1.0000   1.0000   1.0000
     1.0000   1.0000   1.0000   1.0000   1.0000   1.0000   1.0000   1.0000
     1.0000   1.0000   1.0000   1.0000   1.0000   1.0000   1.0000   1.0000
     1.0000   1.0000   1.0000   1.0000   1.0000   1.0000   1.0000   1.0000
     1.0000   1.0000   1.0000   1.0000   1.0000   1.0000   1.0000   1.0000
[...]
     absolute magnetization    =    10.03 Bohr mag/cell

     iteration #179     ecut=    30.00 Ry     beta= 0.70
     Davidson diagonalization with overlap

---- Real-time Memory Report at c_bands before calling an iterative solver
           113 MiB given to the printing process from OS
             0 MiB allocation reported by mallinfo(arena+hblkhd)
          1922 MiB available memory on the node where the printing process lives
------------------
     ethr =  2.81E-07,  avg # of iterations =  1.8

     total cpu time spent up to now is     4852.8 secs

     total energy              =   -1411.30675141 Ry
     estimated scf accuracy    <       0.00103573 Ry

     total magnetization       =     9.46 Bohr mag/cell
     absolute magnetization    =     9.89 Bohr mag/cell

     iteration #180     ecut=    30.00 Ry     beta= 0.70
     Davidson diagonalization with overlap

---- Real-time Memory Report at c_bands before calling an iterative solver
           113 MiB given to the printing process from OS
             0 MiB allocation reported by mallinfo(arena+hblkhd)
          1921 MiB available memory on the node where the printing process lives
------------------
     ethr =  2.81E-07,  avg # of iterations =  8.5

     total cpu time spent up to now is     4880.1 secs

     total energy              =   -1411.32614129 Ry
     estimated scf accuracy    <       0.00432306 Ry

     total magnetization       =    11.58 Bohr mag/cell
     absolute magnetization    =    11.84 Bohr mag/cell

     iteration #181     ecut=    30.00 Ry     beta= 0.70
     Davidson diagonalization with overlap

---- Real-time Memory Report at c_bands before calling an iterative solver
           113 MiB given to the printing process from OS
             0 MiB allocation reported by mallinfo(arena+hblkhd)
          1925 MiB available memory on the node where the printing process lives
------------------
     ethr =  2.81E-07,  avg # of iterations =  3.9

     total cpu time spent up to now is     4894.0 secs

     total energy              =   -1411.32738692 Ry
     estimated scf accuracy    <       0.00535241 Ry

     total magnetization       =    11.79 Bohr mag/cell
     absolute magnetization    =    12.03 Bohr mag/cell

     iteration #182     ecut=    30.00 Ry     beta= 0.70
     Davidson diagonalization with overlap

---- Real-time Memory Report at c_bands before calling an iterative solver
           113 MiB given to the printing process from OS
             0 MiB allocation reported by mallinfo(arena+hblkhd)
          1925 MiB available memory on the node where the printing process lives
------------------
     ethr =  2.81E-07,  avg # of iterations =  1.8

     total cpu time spent up to now is     4905.3 secs

     total energy              =   -1411.32774764 Ry
     estimated scf accuracy    <       0.00459914 Ry

     total magnetization       =    11.65 Bohr mag/cell
     absolute magnetization    =    11.91 Bohr mag/cell

     iteration #183     ecut=    30.00 Ry     beta= 0.70
     Davidson diagonalization with overlap

---- Real-time Memory Report at c_bands before calling an iterative solver
           113 MiB given to the printing process from OS
             0 MiB allocation reported by mallinfo(arena+hblkhd)
          1925 MiB available memory on the node where the printing process lives
------------------
     ethr =  2.81E-07,  avg # of iterations =  1.0

     total cpu time spent up to now is     4915.7 secs

     total energy              =   -1411.32712869 Ry
     estimated scf accuracy    <       0.00448682 Ry

     total magnetization       =    11.61 Bohr mag/cell
     absolute magnetization    =    11.88 Bohr mag/cell

     iteration #184     ecut=    30.00 Ry     beta= 0.70
     Davidson diagonalization with overlap

---- Real-time Memory Report at c_bands before calling an iterative solver
           113 MiB given to the printing process from OS
             0 MiB allocation reported by mallinfo(arena+hblkhd)
          1921 MiB available memory on the node where the printing process lives
------------------
     ethr =  2.81E-07,  avg # of iterations =  1.0

     total cpu time spent up to now is     4926.4 secs

     total energy              =   -1411.25544772 Ry
     estimated scf accuracy    <       0.00480212 Ry

     total magnetization       =    11.69 Bohr mag/cell
     absolute magnetization    =    11.95 Bohr mag/cell

     iteration #185     ecut=    30.00 Ry     beta= 0.70
     Davidson diagonalization with overlap

---- Real-time Memory Report at c_bands before calling an iterative solver
           113 MiB given to the printing process from OS
             0 MiB allocation reported by mallinfo(arena+hblkhd)
          1921 MiB available memory on the node where the printing process lives
------------------
     ethr =  2.81E-07,  avg # of iterations =  9.9

     total cpu time spent up to now is     4959.7 secs

     total energy              =   -1411.34100831 Ry
     estimated scf accuracy    <       0.00133870 Ry

     total magnetization       =     7.09 Bohr mag/cell
     absolute magnetization    =     7.61 Bohr mag/cell

     iteration #186     ecut=    30.00 Ry     beta= 0.70
     Davidson diagonalization with overlap

---- Real-time Memory Report at c_bands before calling an iterative solver
           113 MiB given to the printing process from OS
             0 MiB allocation reported by mallinfo(arena+hblkhd)
          1921 MiB available memory on the node where the printing process lives
------------------
     ethr =  2.81E-07,  avg # of iterations =  6.0

     total cpu time spent up to now is     4979.3 secs

     total energy              =   -1411.34356485 Ry
     estimated scf accuracy    <       0.00158133 Ry

     total magnetization       =     6.32 Bohr mag/cell
     absolute magnetization    =     6.84 Bohr mag/cell

     iteration #187     ecut=    30.00 Ry     beta= 0.70
     Davidson diagonalization with overlap

---- Real-time Memory Report at c_bands before calling an iterative solver
           113 MiB given to the printing process from OS
             0 MiB allocation reported by mallinfo(arena+hblkhd)
          1928 MiB available memory on the node where the printing process lives
------------------
     ethr =  2.81E-07,  avg # of iterations =  4.7

     total cpu time spent up to now is     4995.5 secs

     total energy              =   -1411.34454623 Ry
     estimated scf accuracy    <       0.00057683 Ry

     total magnetization       =     5.88 Bohr mag/cell
     absolute magnetization    =     6.39 Bohr mag/cell

     iteration #188     ecut=    30.00 Ry     beta= 0.70
     Davidson diagonalization with overlap

---- Real-time Memory Report at c_bands before calling an iterative solver
           113 MiB given to the printing process from OS
             0 MiB allocation reported by mallinfo(arena+hblkhd)
          1928 MiB available memory on the node where the printing process lives
------------------
     ethr =  2.81E-07,  avg # of iterations =  3.2

     total cpu time spent up to now is     5008.6 secs

     total energy              =   -1411.33436272 Ry
     estimated scf accuracy    <       0.00226182 Ry

     total magnetization       =     5.72 Bohr mag/cell
     absolute magnetization    =     6.23 Bohr mag/cell

     iteration #189     ecut=    30.00 Ry     beta= 0.70
     Davidson diagonalization with overlap

---- Real-time Memory Report at c_bands before calling an iterative solver
           113 MiB given to the printing process from OS
             0 MiB allocation reported by mallinfo(arena+hblkhd)
          1928 MiB available memory on the node where the printing process lives
------------------
     ethr =  2.81E-07,  avg # of iterations =  7.9

     total cpu time spent up to now is     5035.2 secs

     total energy              =   -1411.34114157 Ry
     estimated scf accuracy    <       0.00265768 Ry

     total magnetization       =     3.63 Bohr mag/cell
     absolute magnetization    =     4.13 Bohr mag/cell

     iteration #190     ecut=    30.00 Ry     beta= 0.70
     Davidson diagonalization with overlap

---- Real-time Memory Report at c_bands before calling an iterative solver
           113 MiB given to the printing process from OS
             0 MiB allocation reported by mallinfo(arena+hblkhd)
          1924 MiB available memory on the node where the printing process lives
------------------
     ethr =  2.81E-07,  avg # of iterations =  7.8

     total cpu time spent up to now is     5061.1 secs

     total energy              =   -1411.35518898 Ry
     estimated scf accuracy    <       0.00460263 Ry

     total magnetization       =     1.66 Bohr mag/cell
     absolute magnetization    =     2.05 Bohr mag/cell

     iteration #191     ecut=    30.00 Ry     beta= 0.70
     Davidson diagonalization with overlap

---- Real-time Memory Report at c_bands before calling an iterative solver
           113 MiB given to the printing process from OS
             0 MiB allocation reported by mallinfo(arena+hblkhd)
          1924 MiB available memory on the node where the printing process lives
------------------
     ethr =  2.81E-07,  avg # of iterations =  5.2

     total cpu time spent up to now is     5078.8 secs

     total energy              =   -1411.34603078 Ry
     estimated scf accuracy    <       0.00682921 Ry

     total magnetization       =     2.19 Bohr mag/cell
     absolute magnetization    =     2.64 Bohr mag/cell

     iteration #192     ecut=    30.00 Ry     beta= 0.70
     Davidson diagonalization with overlap

---- Real-time Memory Report at c_bands before calling an iterative solver
           113 MiB given to the printing process from OS
             0 MiB allocation reported by mallinfo(arena+hblkhd)
          1924 MiB available memory on the node where the printing process lives
------------------
     c_bands:  1 eigenvalues not converged
     ethr =  2.81E-07,  avg # of iterations =  8.7

     total cpu time spent up to now is     5106.0 secs

     total energy              =   -1411.36387049 Ry
     estimated scf accuracy    <       0.00470458 Ry

     total magnetization       =     0.71 Bohr mag/cell
     absolute magnetization    =     0.93 Bohr mag/cell

     iteration #193     ecut=    30.00 Ry     beta= 0.70
     Davidson diagonalization with overlap

---- Real-time Memory Report at c_bands before calling an iterative solver
           113 MiB given to the printing process from OS
             0 MiB allocation reported by mallinfo(arena+hblkhd)
          1931 MiB available memory on the node where the printing process lives
------------------
     ethr =  2.81E-07,  avg # of iterations =  2.7

     total cpu time spent up to now is     5118.4 secs

     total energy              =   -1411.16141426 Ry
     estimated scf accuracy    <       0.00565888 Ry

     total magnetization       =     0.86 Bohr mag/cell
     absolute magnetization    =     1.08 Bohr mag/cell

     iteration #194     ecut=    30.00 Ry     beta= 0.70
     Davidson diagonalization with overlap

---- Real-time Memory Report at c_bands before calling an iterative solver
           113 MiB given to the printing process from OS
             0 MiB allocation reported by mallinfo(arena+hblkhd)
          1931 MiB available memory on the node where the printing process lives
------------------
     ethr =  2.81E-07,  avg # of iterations = 11.0

     total cpu time spent up to now is     5154.4 secs

     total energy              =   -1411.33953952 Ry
     estimated scf accuracy    <       0.00054566 Ry

     total magnetization       =     7.26 Bohr mag/cell
     absolute magnetization    =     7.78 Bohr mag/cell

     iteration #195     ecut=    30.00 Ry     beta= 0.70
     Davidson diagonalization with overlap

---- Real-time Memory Report at c_bands before calling an iterative solver
           113 MiB given to the printing process from OS
             0 MiB allocation reported by mallinfo(arena+hblkhd)
          1924 MiB available memory on the node where the printing process lives
------------------
     ethr =  2.81E-07,  avg # of iterations =  5.6

     total cpu time spent up to now is     5171.8 secs

     total energy              =   -1411.33949675 Ry
     estimated scf accuracy    <       0.00073199 Ry

     total magnetization       =     7.78 Bohr mag/cell
     absolute magnetization    =     8.29 Bohr mag/cell

     iteration #196     ecut=    30.00 Ry     beta= 0.70
     Davidson diagonalization with overlap

---- Real-time Memory Report at c_bands before calling an iterative solver
           113 MiB given to the printing process from OS
             0 MiB allocation reported by mallinfo(arena+hblkhd)
          1924 MiB available memory on the node where the printing process lives
------------------
     ethr =  2.81E-07,  avg # of iterations =  4.6

     total cpu time spent up to now is     5187.1 secs

     total energy              =   -1411.33894491 Ry
     estimated scf accuracy    <       0.00151878 Ry

     total magnetization       =     8.12 Bohr mag/cell
     absolute magnetization    =     8.61 Bohr mag/cell

     iteration #197     ecut=    30.00 Ry     beta= 0.70
     Davidson diagonalization with overlap

---- Real-time Memory Report at c_bands before calling an iterative solver
           113 MiB given to the printing process from OS
             0 MiB allocation reported by mallinfo(arena+hblkhd)
          1924 MiB available memory on the node where the printing process lives
------------------
     ethr =  2.81E-07,  avg # of iterations =  4.2

     total cpu time spent up to now is     5201.7 secs

     total energy              =   -1411.33742357 Ry
     estimated scf accuracy    <       0.00106774 Ry

     total magnetization       =     8.40 Bohr mag/cell
     absolute magnetization    =     8.88 Bohr mag/cell

     iteration #198     ecut=    30.00 Ry     beta= 0.70
     Davidson diagonalization with overlap

---- Real-time Memory Report at c_bands before calling an iterative solver
           113 MiB given to the printing process from OS
             0 MiB allocation reported by mallinfo(arena+hblkhd)
          1924 MiB available memory on the node where the printing process lives
------------------
     ethr =  2.81E-07,  avg # of iterations =  5.0

     total cpu time spent up to now is     5217.9 secs

     total energy              =   -1411.33691325 Ry
     estimated scf accuracy    <       0.00133003 Ry

     total magnetization       =     8.85 Bohr mag/cell
     absolute magnetization    =     9.31 Bohr mag/cell

     iteration #199     ecut=    30.00 Ry     beta= 0.70
     Davidson diagonalization with overlap

---- Real-time Memory Report at c_bands before calling an iterative solver
           113 MiB given to the printing process from OS
             0 MiB allocation reported by mallinfo(arena+hblkhd)
          1927 MiB available memory on the node where the printing process lives
------------------
     ethr =  2.81E-07,  avg # of iterations =  3.6

     total cpu time spent up to now is     5232.6 secs

     total energy              =   -1411.33263087 Ry
     estimated scf accuracy    <       0.00073321 Ry

     total magnetization       =     9.22 Bohr mag/cell
     absolute magnetization    =     9.65 Bohr mag/cell

     iteration #200     ecut=    30.00 Ry     beta= 0.70
     Davidson diagonalization with overlap

---- Real-time Memory Report at c_bands before calling an iterative solver
           113 MiB given to the printing process from OS
             0 MiB allocation reported by mallinfo(arena+hblkhd)
          1926 MiB available memory on the node where the printing process lives
------------------
     ethr =  2.81E-07,  avg # of iterations =  6.2

     total cpu time spent up to now is     5254.4 secs

     total energy              =   -1411.27911480 Ry
     estimated scf accuracy    <       0.00358742 Ry

     total magnetization       =     7.79 Bohr mag/cell
     absolute magnetization    =     8.30 Bohr mag/cell

     End of self-consistent calculation

     convergence NOT achieved after 200 iterations: stopping

     Writing config to output data dir ./temp/mns.save/ :
     XML data file, charge density

     init_run     :      5.50s CPU      5.74s WALL (       1 calls)
     electrons    :   5082.65s CPU   5203.85s WALL (       4 calls)
     update_pot   :      1.82s CPU      1.83s WALL (       3 calls)
     forces       :      8.46s CPU      8.53s WALL (       3 calls)
     stress       :     29.72s CPU     29.83s WALL (       3 calls)

     Called by init_run:
     wfcinit      :      4.08s CPU      4.25s WALL (       1 calls)
     wfcinit:atom :      0.03s CPU      0.03s WALL (      84 calls)
     wfcinit:wfcr :      3.83s CPU      4.00s WALL (      84 calls)
     potinit      :      0.71s CPU      0.74s WALL (       1 calls)
     hinit0       :      0.53s CPU      0.55s WALL (       1 calls)

     Called by electrons:
     c_bands      :   4411.11s CPU   4515.77s WALL (     290 calls)
     sum_band     :    445.54s CPU    461.10s WALL (     290 calls)
     v_of_rho     :      6.15s CPU      6.26s WALL (     293 calls)
     v_h          :      0.23s CPU      0.24s WALL (     293 calls)
     v_xc         :      6.04s CPU      6.16s WALL (     299 calls)
     newd         :     50.71s CPU     50.88s WALL (     293 calls)
     PAW_pot      :    170.69s CPU    171.24s WALL (     296 calls)
     mix_rho      :      2.27s CPU      2.29s WALL (     290 calls)

     Called by c_bands:
     init_us_2    :     45.30s CPU     45.84s WALL (   49560 calls)
     cegterg      :   4321.96s CPU   4425.40s WALL (   24360 calls)

     Called by sum_band:
     sum_band:wei :      0.48s CPU      0.50s WALL (     290 calls)
     sum_band:loo :    363.51s CPU    378.83s WALL (     290 calls)
     sum_band:buf :      8.97s CPU      9.06s WALL (   24360 calls)
     sum_band:ini :     21.88s CPU     22.01s WALL (   24360 calls)
     sum_band:cal :    156.16s CPU    160.97s WALL (   24612 calls)
     sum_band:bec :      5.72s CPU      5.74s WALL (   24612 calls)
     addusdens    :     80.83s CPU     81.05s WALL (     290 calls)
                                        0.00s GPU  (     290 calls)
     addusd:skk   :      0.10s CPU      0.10s WALL (    1450 calls)
                                        0.00s GPU  (    1450 calls)

     Called by *egterg:
     cdiaghg      :    531.62s CPU    533.86s WALL (  152526 calls)
     cegterg:over :    379.05s CPU    383.24s WALL (  128502 calls)
     cegterg:upda :    214.31s CPU    214.78s WALL (  128502 calls)
     cegterg:last :    521.20s CPU    522.30s WALL (   67767 calls)
     h_psi        :   2094.17s CPU   2186.96s WALL (  152946 calls)
     s_psi        :    443.38s CPU    444.99s WALL (  152946 calls)
     g_psi        :      4.48s CPU      4.50s WALL (  128502 calls)

     Called by h_psi:
     h_psi:calbec :    565.15s CPU    585.21s WALL (  152946 calls)
     vloc_psi     :   1064.41s CPU   1134.58s WALL (  152946 calls)
     add_vuspsi   :    447.82s CPU    450.39s WALL (  152946 calls)

     General routines
     calbec       :    728.42s CPU    753.45s WALL (  178818 calls)
     fft          :      2.17s CPU      2.23s WALL (    7442 calls)
     ffts         :      0.29s CPU      0.29s WALL (    1166 calls)
     fftw         :   1106.05s CPU   1179.43s WALL ( 8951992 calls)
     interpolate  :      0.46s CPU      0.48s WALL (     586 calls)
     davcio       :      0.01s CPU      0.02s WALL (     102 calls)

     Parallel routines

     PAW routines
     PAW_pot      :    170.69s CPU    171.24s WALL (     296 calls)

     PWSCF        :      1h25m CPU      1h27m WALL


   This run was terminated on:  22: 3:44  19Jan2025            

=------------------------------------------------------------------------------=
   JOB DONE.
=------------------------------------------------------------------------------=
