
     Program PWSCF v.7.3.1 starts on 20Jan2025 at 20:59:23 

     This program is part of the open-source Quantum ESPRESSO suite
     for quantum simulation of materials; please cite
         "P. Giannozzi et al., J. Phys.:Condens. Matter 21 395502 (2009);
         "P. Giannozzi et al., J. Phys.:Condens. Matter 29 465901 (2017);
         "P. Giannozzi et al., J. Chem. Phys. 152 154105 (2020);
          URL http://www.quantum-espresso.org", 
     in publications or presentations arising from this work. More details at
     http://www.quantum-espresso.org/quote

     Parallel version (MPI), running on     6 processors

     MPI processes distributed on     1 nodes
     3065 MiB available memory on the printing compute node when the environment starts

     Reading input from vc_relax.in

     Current dimensions of program PWSCF are:
     Max number of different atomic species (ntypx) = 10
     Max number of k-points (npk) =  40000
     Max angular momentum in pseudopotentials (lmaxx) =  4
     file Mn.pbe-spn-kjpaw_psl.0.3.1.UPF: wavefunction(s)  3P 3D renormalized
     file Mn.pbe-spn-kjpaw_psl.0.3.1.UPF: wavefunction(s)  3P 3D renormalized
     file Mn.pbe-spn-kjpaw_psl.0.3.1.UPF: wavefunction(s)  3P 3D renormalized
     file Mn.pbe-spn-kjpaw_psl.0.3.1.UPF: wavefunction(s)  3P 3D renormalized
     file S.pbe-n-kjpaw_psl.1.0.0.UPF: wavefunction(s)  3S 3P renormalized

     R & G space division:  proc/nbgrp/npool/nimage =       6
     Subspace diagonalization in iterative solution of the eigenvalue problem:
     a serial algorithm will be used


     Parallelization info
     --------------------
     sticks:   dense  smooth     PW     G-vecs:    dense   smooth      PW
     Min         374     300     92                 5900     4227     706
     Max         375     301     93                 5902     4229     707
     Sum        2245    1801    555                35405    25365    4237

     Using Slab Decomposition



     bravais-lattice index     =            0
     lattice parameter (alat)  =      14.7866  a.u.
     unit-cell volume          =    1143.0296 (a.u.)^3
     number of atoms/cell      =            8
     number of atomic types    =            5
     number of electrons       =        84.00
     number of Kohn-Sham states=           50
     kinetic-energy cutoff     =      30.0000  Ry
     charge density cutoff     =     150.0000  Ry
     scf convergence threshold =      1.0E-10
     mixing beta               =       0.7000
     number of iterations used =            8  plain     mixing
     energy convergence thresh.=      1.0E-05
     force convergence thresh. =      1.0E-04
     press convergence thresh. =      5.0E-01
     Exchange-correlation= SLA  PW   PBX  PBC
                           (   1   4   3   4   0   0   0)
     nstep                     =           50


     celldm(1)=  14.786571  celldm(2)=   0.000000  celldm(3)=   0.000000
     celldm(4)=   0.000000  celldm(5)=   0.000000  celldm(6)=   0.000000

     crystal axes: (cart. coord. in units of alat)
               a(1) = (   1.000000   0.000000   0.000000 )  
               a(2) = (   0.500000   0.866025   0.000000 )  
               a(3) = (   0.250000   0.144338   0.408248 )  

     reciprocal axes: (cart. coord. in units 2 pi/alat)
               b(1) = (  1.000000 -0.577350 -0.408248 )  
               b(2) = (  0.000000  1.154700 -0.408248 )  
               b(3) = (  0.000000  0.000000  2.449490 )  


     PseudoPot. # 1 for Mn read from file:
     ./../../../pseudos/Mn.pbe-spn-kjpaw_psl.0.3.1.UPF
     MD5 check sum: ba19e6d7ccbc12830efad05ba8577d9c
     Pseudo is Projector augmented-wave + core cor, Zval = 15.0
     Generated using &quot;atomic&quot; code by A. Dal Corso  v.6.2.2
     Shape of augmentation charge: PSQ
     Using radial grid of 1187 points,  6 beta functions with: 
                l(1) =   0
                l(2) =   0
                l(3) =   1
                l(4) =   1
                l(5) =   2
                l(6) =   2
     Q(r) pseudized with 0 coefficients 


     PseudoPot. # 2 for Mn read from file:
     ./../../../pseudos/Mn.pbe-spn-kjpaw_psl.0.3.1.UPF
     MD5 check sum: ba19e6d7ccbc12830efad05ba8577d9c
     Pseudo is Projector augmented-wave + core cor, Zval = 15.0
     Generated using &quot;atomic&quot; code by A. Dal Corso  v.6.2.2
     Shape of augmentation charge: PSQ
     Using radial grid of 1187 points,  6 beta functions with: 
                l(1) =   0
                l(2) =   0
                l(3) =   1
                l(4) =   1
                l(5) =   2
                l(6) =   2
     Q(r) pseudized with 0 coefficients 


     PseudoPot. # 3 for Mn read from file:
     ./../../../pseudos/Mn.pbe-spn-kjpaw_psl.0.3.1.UPF
     MD5 check sum: ba19e6d7ccbc12830efad05ba8577d9c
     Pseudo is Projector augmented-wave + core cor, Zval = 15.0
     Generated using &quot;atomic&quot; code by A. Dal Corso  v.6.2.2
     Shape of augmentation charge: PSQ
     Using radial grid of 1187 points,  6 beta functions with: 
                l(1) =   0
                l(2) =   0
                l(3) =   1
                l(4) =   1
                l(5) =   2
                l(6) =   2
     Q(r) pseudized with 0 coefficients 


     PseudoPot. # 4 for Mn read from file:
     ./../../../pseudos/Mn.pbe-spn-kjpaw_psl.0.3.1.UPF
     MD5 check sum: ba19e6d7ccbc12830efad05ba8577d9c
     Pseudo is Projector augmented-wave + core cor, Zval = 15.0
     Generated using &quot;atomic&quot; code by A. Dal Corso  v.6.2.2
     Shape of augmentation charge: PSQ
     Using radial grid of 1187 points,  6 beta functions with: 
                l(1) =   0
                l(2) =   0
                l(3) =   1
                l(4) =   1
                l(5) =   2
                l(6) =   2
     Q(r) pseudized with 0 coefficients 


     PseudoPot. # 5 for S  read from file:
     ./../../../pseudos/S.pbe-n-kjpaw_psl.1.0.0.UPF
     MD5 check sum: fb45dfebcf3e72a4e1bd4a866ec2e262
     Pseudo is Projector augmented-wave + core cor, Zval =  6.0
     Generated using &quot;atomic&quot; code by A. Dal Corso  v.6.3
     Shape of augmentation charge: PSQ
     Using radial grid of 1151 points,  6 beta functions with: 
                l(1) =   0
                l(2) =   0
                l(3) =   1
                l(4) =   1
                l(5) =   2
                l(6) =   2
     Q(r) pseudized with 0 coefficients 


     atomic species   valence    mass     pseudopotential
     Mn1              15.00    54.93800     Mn( 1.00)
     Mn2              15.00    54.93800     Mn( 1.00)
     Mn3              15.00    54.93800     Mn( 1.00)
     Mn4              15.00    54.93800     Mn( 1.00)
     S                 6.00    32.06500     S ( 1.00)

     Starting magnetic structure 
     atomic species   magnetization
     Mn1             0.200
     Mn2             0.200
     Mn3             0.200
     Mn4             0.200
     S               0.000

     No symmetry found


                                    s                        frac. trans.

      isym =  1     identity                                     

 cryst.   s( 1) = (     1          0          0      )
                  (     0          1          0      )
                  (     0          0          1      )

 cart.    s( 1) = (  1.0000000  0.0000000  0.0000000 )
                  (  0.0000000  1.0000000  0.0000000 )
                  (  0.0000000  0.0000000  1.0000000 )


   Cartesian axes

     site n.     atom                  positions (alat units)
         1        Mn1    tau(   1) = (   0.7488520   0.4324281   0.3078856  )
         2        Mn2    tau(   2) = (   0.9988442   0.8654359   0.3078921  )
         3        Mn3    tau(   3) = (   1.2488431   0.4324243   0.3078924  )
         4        Mn4    tau(   4) = (   1.4988508   0.8654411   0.3078863  )
         5        S      tau(   5) = (   0.2511523   0.1449243   0.4065456  )
         6        S      tau(   6) = (   0.5011523   0.5779371   0.4065453  )
         7        S      tau(   7) = (   0.7511525   0.1449242   0.4065454  )
         8        S      tau(   8) = (   1.0011524   0.5779370   0.4065455  )

   Crystallographic axes

     site n.     atom                  positions (cryst. coord.)
         1        Mn1    tau(   1) = (  0.3734958  0.3736312  0.7541625  )
         2        Mn2    tau(   2) = (  0.3734882  0.8736229  0.7541784  )
         3        Mn3    tau(   3) = (  0.8734863  0.3736240  0.7541792  )
         4        Mn4    tau(   4) = (  0.8734942  0.8736312  0.7541643  )
         5        S      tau(   5) = (  0.0015087  0.0013726  0.9958292  )
         6        S      tau(   6) = (  0.0015089  0.5013728  0.9958286  )
         7        S      tau(   7) = (  0.5015090  0.0013727  0.9958286  )
         8        S      tau(   8) = (  0.5015088  0.5013726  0.9958291  )

     number of k points=    23  Gaussian smearing, width (Ry)=  0.0100
                       cart. coord. in units 2pi/alat
        k(    1) = (   0.0000000   0.0000000   0.0000000), wk =   0.0222222
        k(    2) = (   0.0000000   0.0000000   0.4898979), wk =   0.0444444
        k(    3) = (   0.0000000   0.0000000   0.9797958), wk =   0.0444444
        k(    4) = (   0.0000000   0.3849002  -0.1360827), wk =   0.0444444
        k(    5) = (   0.0000000   0.3849002   0.3538152), wk =   0.0444444
        k(    6) = (   0.0000000   0.3849002   0.8437131), wk =   0.0444444
        k(    7) = (   0.0000000   0.3849002  -1.1158786), wk =   0.0444444
        k(    8) = (   0.0000000   0.3849002  -0.6259807), wk =   0.0444444
        k(    9) = (   0.3333333   0.1924501  -0.2721655), wk =   0.0444444
        k(   10) = (   0.3333333   0.1924501   0.2177324), wk =   0.0444444
        k(   11) = (   0.3333333   0.1924501   0.7076304), wk =   0.0444444
        k(   12) = (   0.3333333   0.1924501  -1.2519613), wk =   0.0444444
        k(   13) = (   0.3333333   0.1924501  -0.7620634), wk =   0.0444444
        k(   14) = (   0.3333333  -0.5773502   0.0000000), wk =   0.0444444
        k(   15) = (   0.3333333  -0.5773502   0.4898979), wk =   0.0444444
        k(   16) = (   0.3333333  -0.5773502   0.9797959), wk =   0.0444444
        k(   17) = (  -0.3333333   0.1924501   0.1360827), wk =   0.0444444
        k(   18) = (  -0.3333333   0.1924501  -0.3538152), wk =   0.0444444
        k(   19) = (  -0.3333333   0.1924501  -0.8437131), wk =   0.0444444
        k(   20) = (  -0.3333333   0.1924501   1.1158786), wk =   0.0444444
        k(   21) = (  -0.3333333   0.1924501   0.6259807), wk =   0.0444444
        k(   22) = (   0.3333333  -0.5773502  -0.4898979), wk =   0.0444444
        k(   23) = (   0.3333333  -0.5773502  -0.9797958), wk =   0.0444444

                       cryst. coord.
        k(    1) = (   0.0000000   0.0000000   0.0000000), wk =   0.0222222
        k(    2) = (   0.0000000   0.0000000   0.2000000), wk =   0.0444444
        k(    3) = (   0.0000000   0.0000000   0.4000000), wk =   0.0444444
        k(    4) = (   0.0000000   0.3333333   0.0000000), wk =   0.0444444
        k(    5) = (   0.0000000   0.3333333   0.2000000), wk =   0.0444444
        k(    6) = (   0.0000000   0.3333333   0.4000000), wk =   0.0444444
        k(    7) = (   0.0000000   0.3333333  -0.4000000), wk =   0.0444444
        k(    8) = (   0.0000000   0.3333333  -0.2000000), wk =   0.0444444
        k(    9) = (   0.3333333   0.3333333   0.0000000), wk =   0.0444444
        k(   10) = (   0.3333333   0.3333333   0.2000000), wk =   0.0444444
        k(   11) = (   0.3333333   0.3333333   0.4000000), wk =   0.0444444
        k(   12) = (   0.3333333   0.3333333  -0.4000000), wk =   0.0444444
        k(   13) = (   0.3333333   0.3333333  -0.2000000), wk =   0.0444444
        k(   14) = (   0.3333333  -0.3333333   0.0000000), wk =   0.0444444
        k(   15) = (   0.3333333  -0.3333333   0.2000000), wk =   0.0444444
        k(   16) = (   0.3333333  -0.3333333   0.4000000), wk =   0.0444444
        k(   17) = (  -0.3333333   0.0000000  -0.0000000), wk =   0.0444444
        k(   18) = (  -0.3333333   0.0000000  -0.2000000), wk =   0.0444444
        k(   19) = (  -0.3333333   0.0000000  -0.4000000), wk =   0.0444444
        k(   20) = (  -0.3333333   0.0000000   0.4000000), wk =   0.0444444
        k(   21) = (  -0.3333333   0.0000000   0.2000000), wk =   0.0444444
        k(   22) = (   0.3333333  -0.3333333  -0.2000000), wk =   0.0444444
        k(   23) = (   0.3333333  -0.3333333  -0.4000000), wk =   0.0444444

     Dense  grid:    35405 G-vectors     FFT dimensions: (  60,  60,  30)

     Smooth grid:    25365 G-vectors     FFT dimensions: (  54,  54,  25)

     Dynamical RAM for                 wfc:       0.40 MB

     Dynamical RAM for     wfc (w. buffer):      18.93 MB

     Dynamical RAM for           str. fact:       0.45 MB

     Dynamical RAM for           local pot:       0.00 MB

     Dynamical RAM for          nlocal pot:       1.16 MB

     Dynamical RAM for                qrad:       9.84 MB

     Dynamical RAM for          rho,v,vnew:       1.36 MB

     Dynamical RAM for               rhoin:       0.45 MB

     Dynamical RAM for            rho*nmix:       2.88 MB

     Dynamical RAM for           G-vectors:       0.37 MB

     Dynamical RAM for          h,s,v(r/c):       0.46 MB

     Dynamical RAM for          <psi|beta>:       0.11 MB

     Dynamical RAM for                 psi:       0.81 MB

     Dynamical RAM for                hpsi:       0.81 MB

     Dynamical RAM for                spsi:       0.81 MB

     Dynamical RAM for      wfcinit/wfcrot:       0.97 MB

     Dynamical RAM for           addusdens:      17.20 MB

     Dynamical RAM for          addusforce:      17.77 MB

     Dynamical RAM for         addusstress:      18.24 MB

     Estimated static dynamical RAM per process >      33.94 MB

     Estimated max dynamical RAM per process >      55.06 MB

     Estimated total dynamical RAM >     330.34 MB

     Check: negative core charge=   -0.000237
     Generating pointlists ...
     new r_m :   0.1253 (alat units)  1.8527 (a.u.) for type    1
     new r_m :   0.1253 (alat units)  1.8527 (a.u.) for type    2
     new r_m :   0.1253 (alat units)  1.8526 (a.u.) for type    3
     new r_m :   0.1253 (alat units)  1.8527 (a.u.) for type    4
     new r_m :   0.1253 (alat units)  1.8526 (a.u.) for type    5

     Initial potential from superposition of free atoms

     starting charge      83.9979, renormalised to      84.0000
     Starting wfcs are   56 randomized atomic wfcs
     Checking if some PAW data can be deallocated... 
       PAW data deallocated on    5 nodes for type:  1
       PAW data deallocated on    5 nodes for type:  2
       PAW data deallocated on    5 nodes for type:  3
       PAW data deallocated on    5 nodes for type:  4
       PAW data deallocated on    2 nodes for type:  5

     total cpu time spent up to now is        4.1 secs

     Self-consistent Calculation

     iteration #  1     ecut=    30.00 Ry     beta= 0.70
     Davidson diagonalization with overlap

---- Real-time Memory Report at c_bands before calling an iterative solver
            73 MiB given to the printing process from OS
             0 MiB allocation reported by mallinfo(arena+hblkhd)
          2777 MiB available memory on the node where the printing process lives
------------------
     ethr =  1.00E-02,  avg # of iterations =  2.2

     Threshold (ethr) on eigenvalues was too large:
     Diagonalizing with lowered threshold

     Davidson diagonalization with overlap

---- Real-time Memory Report at c_bands before calling an iterative solver
            89 MiB given to the printing process from OS
             0 MiB allocation reported by mallinfo(arena+hblkhd)
          2661 MiB available memory on the node where the printing process lives
------------------
     ethr =  2.93E-04,  avg # of iterations =  4.1

     total cpu time spent up to now is       20.4 secs

     total energy              =   -1410.90904221 Ry
     estimated scf accuracy    <       0.20462646 Ry

     total magnetization       =    15.37 Bohr mag/cell
     absolute magnetization    =    15.37 Bohr mag/cell

     iteration #  2     ecut=    30.00 Ry     beta= 0.70
     Davidson diagonalization with overlap

---- Real-time Memory Report at c_bands before calling an iterative solver
            92 MiB given to the printing process from OS
             0 MiB allocation reported by mallinfo(arena+hblkhd)
          2632 MiB available memory on the node where the printing process lives
------------------
     ethr =  2.44E-04,  avg # of iterations =  2.3

     total cpu time spent up to now is       28.5 secs

     total energy              =   -1410.95846852 Ry
     estimated scf accuracy    <       0.02335514 Ry

     total magnetization       =    15.90 Bohr mag/cell
     absolute magnetization    =    15.90 Bohr mag/cell

     iteration #  3     ecut=    30.00 Ry     beta= 0.70
     Davidson diagonalization with overlap

---- Real-time Memory Report at c_bands before calling an iterative solver
            93 MiB given to the printing process from OS
             0 MiB allocation reported by mallinfo(arena+hblkhd)
          2632 MiB available memory on the node where the printing process lives
------------------
     ethr =  2.78E-05,  avg # of iterations =  8.7

     total cpu time spent up to now is       41.0 secs

     total energy              =   -1410.93332197 Ry
     estimated scf accuracy    <       0.35974275 Ry

     total magnetization       =    15.95 Bohr mag/cell
     absolute magnetization    =    16.01 Bohr mag/cell

     iteration #  4     ecut=    30.00 Ry     beta= 0.70
     Davidson diagonalization with overlap

---- Real-time Memory Report at c_bands before calling an iterative solver
            93 MiB given to the printing process from OS
             0 MiB allocation reported by mallinfo(arena+hblkhd)
          2645 MiB available memory on the node where the printing process lives
------------------
     c_bands:  1 eigenvalues not converged
     ethr =  2.78E-05,  avg # of iterations = 10.7

     total cpu time spent up to now is       54.2 secs

     total energy              =   -1410.95998011 Ry
     estimated scf accuracy    <       0.18881817 Ry

     total magnetization       =    15.96 Bohr mag/cell
     absolute magnetization    =    16.01 Bohr mag/cell

     iteration #  5     ecut=    30.00 Ry     beta= 0.70
     Davidson diagonalization with overlap

---- Real-time Memory Report at c_bands before calling an iterative solver
            93 MiB given to the printing process from OS
             0 MiB allocation reported by mallinfo(arena+hblkhd)
          2637 MiB available memory on the node where the printing process lives
------------------
     ethr =  2.78E-05,  avg # of iterations =  7.4

     total cpu time spent up to now is       65.5 secs

     total energy              =   -1410.96493385 Ry
     estimated scf accuracy    <       0.03989506 Ry

     total magnetization       =    15.96 Bohr mag/cell
     absolute magnetization    =    16.01 Bohr mag/cell

     iteration #  6     ecut=    30.00 Ry     beta= 0.70
     Davidson diagonalization with overlap

---- Real-time Memory Report at c_bands before calling an iterative solver
            94 MiB given to the printing process from OS
             0 MiB allocation reported by mallinfo(arena+hblkhd)
          2596 MiB available memory on the node where the printing process lives
------------------
     ethr =  2.78E-05,  avg # of iterations =  8.0

     total cpu time spent up to now is       75.5 secs

     total energy              =   -1410.96441334 Ry
     estimated scf accuracy    <       0.14970695 Ry

     total magnetization       =    15.96 Bohr mag/cell
     absolute magnetization    =    16.04 Bohr mag/cell

     iteration #  7     ecut=    30.00 Ry     beta= 0.70
     Davidson diagonalization with overlap

---- Real-time Memory Report at c_bands before calling an iterative solver
            94 MiB given to the printing process from OS
             0 MiB allocation reported by mallinfo(arena+hblkhd)
          2603 MiB available memory on the node where the printing process lives
------------------
     ethr =  2.78E-05,  avg # of iterations =  5.9

     total cpu time spent up to now is       84.2 secs

     total energy              =   -1410.97097799 Ry
     estimated scf accuracy    <       0.00278204 Ry

     total magnetization       =    15.96 Bohr mag/cell
     absolute magnetization    =    16.02 Bohr mag/cell

     iteration #  8     ecut=    30.00 Ry     beta= 0.70
     Davidson diagonalization with overlap

---- Real-time Memory Report at c_bands before calling an iterative solver
            94 MiB given to the printing process from OS
             0 MiB allocation reported by mallinfo(arena+hblkhd)
          2615 MiB available memory on the node where the printing process lives
------------------
     c_bands:  1 eigenvalues not converged
     ethr =  3.31E-06,  avg # of iterations =  8.5

     total cpu time spent up to now is       95.7 secs

     total energy              =   -1410.97129026 Ry
     estimated scf accuracy    <       0.00975983 Ry

     total magnetization       =    15.96 Bohr mag/cell
     absolute magnetization    =    16.02 Bohr mag/cell

     iteration #  9     ecut=    30.00 Ry     beta= 0.70
     Davidson diagonalization with overlap

---- Real-time Memory Report at c_bands before calling an iterative solver
            95 MiB given to the printing process from OS
             0 MiB allocation reported by mallinfo(arena+hblkhd)
          2604 MiB available memory on the node where the printing process lives
------------------
     ethr =  3.31E-06,  avg # of iterations =  5.5

     total cpu time spent up to now is      104.6 secs

     total energy              =   -1410.97180548 Ry
     estimated scf accuracy    <       0.00011759 Ry

     total magnetization       =    15.96 Bohr mag/cell
     absolute magnetization    =    16.04 Bohr mag/cell

     iteration # 10     ecut=    30.00 Ry     beta= 0.70
     Davidson diagonalization with overlap

---- Real-time Memory Report at c_bands before calling an iterative solver
            95 MiB given to the printing process from OS
             0 MiB allocation reported by mallinfo(arena+hblkhd)
          2608 MiB available memory on the node where the printing process lives
------------------
     ethr =  1.40E-07,  avg # of iterations =  7.1

     total cpu time spent up to now is      115.6 secs

     total energy              =   -1410.97184654 Ry
     estimated scf accuracy    <       0.00003701 Ry

     total magnetization       =    15.96 Bohr mag/cell
     absolute magnetization    =    16.04 Bohr mag/cell

     iteration # 11     ecut=    30.00 Ry     beta= 0.70
     Davidson diagonalization with overlap

---- Real-time Memory Report at c_bands before calling an iterative solver
            95 MiB given to the printing process from OS
             0 MiB allocation reported by mallinfo(arena+hblkhd)
          2601 MiB available memory on the node where the printing process lives
------------------
     ethr =  4.41E-08,  avg # of iterations =  2.8

     total cpu time spent up to now is      124.1 secs

     total energy              =   -1410.97185213 Ry
     estimated scf accuracy    <       0.00000445 Ry

     total magnetization       =    15.96 Bohr mag/cell
     absolute magnetization    =    16.04 Bohr mag/cell

     iteration # 12     ecut=    30.00 Ry     beta= 0.70
     Davidson diagonalization with overlap

---- Real-time Memory Report at c_bands before calling an iterative solver
            95 MiB given to the printing process from OS
             0 MiB allocation reported by mallinfo(arena+hblkhd)
          2595 MiB available memory on the node where the printing process lives
------------------
     c_bands:  1 eigenvalues not converged
     c_bands:  1 eigenvalues not converged
     c_bands:  1 eigenvalues not converged
     ethr =  5.30E-09,  avg # of iterations =  7.7

     total cpu time spent up to now is      135.8 secs

     total energy              =   -1410.97185417 Ry
     estimated scf accuracy    <       0.00000342 Ry

     total magnetization       =    15.96 Bohr mag/cell
     absolute magnetization    =    16.05 Bohr mag/cell

     iteration # 13     ecut=    30.00 Ry     beta= 0.70
     Davidson diagonalization with overlap

---- Real-time Memory Report at c_bands before calling an iterative solver
            95 MiB given to the printing process from OS
             0 MiB allocation reported by mallinfo(arena+hblkhd)
          2595 MiB available memory on the node where the printing process lives
------------------
     c_bands:  1 eigenvalues not converged
     ethr =  4.07E-09,  avg # of iterations =  1.8

     total cpu time spent up to now is      142.8 secs

     total energy              =   -1410.97185485 Ry
     estimated scf accuracy    <       0.00000384 Ry

     total magnetization       =    15.96 Bohr mag/cell
     absolute magnetization    =    16.05 Bohr mag/cell

     iteration # 14     ecut=    30.00 Ry     beta= 0.70
     Davidson diagonalization with overlap

---- Real-time Memory Report at c_bands before calling an iterative solver
            95 MiB given to the printing process from OS
             0 MiB allocation reported by mallinfo(arena+hblkhd)
          2597 MiB available memory on the node where the printing process lives
------------------
     ethr =  4.07E-09,  avg # of iterations =  1.1

     total cpu time spent up to now is      150.7 secs

     total energy              =   -1410.97185485 Ry
     estimated scf accuracy    <       0.00000436 Ry

     total magnetization       =    15.96 Bohr mag/cell
     absolute magnetization    =    16.05 Bohr mag/cell

     iteration # 15     ecut=    30.00 Ry     beta= 0.70
     Davidson diagonalization with overlap

---- Real-time Memory Report at c_bands before calling an iterative solver
            95 MiB given to the printing process from OS
             0 MiB allocation reported by mallinfo(arena+hblkhd)
          2593 MiB available memory on the node where the printing process lives
------------------
     ethr =  4.07E-09,  avg # of iterations =  1.0

     total cpu time spent up to now is      157.8 secs

     total energy              =   -1410.97185496 Ry
     estimated scf accuracy    <       0.00000318 Ry

     total magnetization       =    15.96 Bohr mag/cell
     absolute magnetization    =    16.05 Bohr mag/cell

     iteration # 16     ecut=    30.00 Ry     beta= 0.70
     Davidson diagonalization with overlap

---- Real-time Memory Report at c_bands before calling an iterative solver
            95 MiB given to the printing process from OS
             0 MiB allocation reported by mallinfo(arena+hblkhd)
          2585 MiB available memory on the node where the printing process lives
------------------
     ethr =  3.78E-09,  avg # of iterations =  1.0

     total cpu time spent up to now is      164.8 secs

     total energy              =   -1410.97185485 Ry
     estimated scf accuracy    <       0.00000140 Ry

     total magnetization       =    15.96 Bohr mag/cell
     absolute magnetization    =    16.05 Bohr mag/cell

     iteration # 17     ecut=    30.00 Ry     beta= 0.70
     Davidson diagonalization with overlap

---- Real-time Memory Report at c_bands before calling an iterative solver
            95 MiB given to the printing process from OS
             0 MiB allocation reported by mallinfo(arena+hblkhd)
          2594 MiB available memory on the node where the printing process lives
------------------
     ethr =  1.67E-09,  avg # of iterations =  4.9

     total cpu time spent up to now is      174.1 secs

     total energy              =   -1410.97185541 Ry
     estimated scf accuracy    <       0.00000030 Ry

     total magnetization       =    15.96 Bohr mag/cell
     absolute magnetization    =    16.05 Bohr mag/cell

     iteration # 18     ecut=    30.00 Ry     beta= 0.70
     Davidson diagonalization with overlap

---- Real-time Memory Report at c_bands before calling an iterative solver
            95 MiB given to the printing process from OS
             0 MiB allocation reported by mallinfo(arena+hblkhd)
          2583 MiB available memory on the node where the printing process lives
------------------
     c_bands:  1 eigenvalues not converged
     ethr =  3.59E-10,  avg # of iterations =  5.5

     total cpu time spent up to now is      184.4 secs

     total energy              =   -1410.97185549 Ry
     estimated scf accuracy    <       0.00000029 Ry

     total magnetization       =    15.96 Bohr mag/cell
     absolute magnetization    =    16.05 Bohr mag/cell

     iteration # 19     ecut=    30.00 Ry     beta= 0.70
     Davidson diagonalization with overlap

---- Real-time Memory Report at c_bands before calling an iterative solver
            95 MiB given to the printing process from OS
             0 MiB allocation reported by mallinfo(arena+hblkhd)
          2597 MiB available memory on the node where the printing process lives
------------------
     ethr =  3.46E-10,  avg # of iterations =  5.5

     total cpu time spent up to now is      193.1 secs

     total energy              =   -1410.97185560 Ry
     estimated scf accuracy    <       0.00000085 Ry

     total magnetization       =    15.96 Bohr mag/cell
     absolute magnetization    =    16.05 Bohr mag/cell

     iteration # 20     ecut=    30.00 Ry     beta= 0.70
     Davidson diagonalization with overlap

---- Real-time Memory Report at c_bands before calling an iterative solver
            95 MiB given to the printing process from OS
             0 MiB allocation reported by mallinfo(arena+hblkhd)
          2592 MiB available memory on the node where the printing process lives
------------------
     ethr =  3.46E-10,  avg # of iterations =  2.8

     total cpu time spent up to now is      201.4 secs

     total energy              =   -1410.97185563 Ry
     estimated scf accuracy    <       0.00000045 Ry

     total magnetization       =    15.96 Bohr mag/cell
     absolute magnetization    =    16.05 Bohr mag/cell

     iteration # 21     ecut=    30.00 Ry     beta= 0.70
     Davidson diagonalization with overlap

---- Real-time Memory Report at c_bands before calling an iterative solver
            95 MiB given to the printing process from OS
             0 MiB allocation reported by mallinfo(arena+hblkhd)
          2587 MiB available memory on the node where the printing process lives
------------------
     ethr =  3.46E-10,  avg # of iterations =  1.0

     total cpu time spent up to now is      208.4 secs

     total energy              =   -1410.97185563 Ry
     estimated scf accuracy    <       0.00000041 Ry

     total magnetization       =    15.96 Bohr mag/cell
     absolute magnetization    =    16.05 Bohr mag/cell

     iteration # 22     ecut=    30.00 Ry     beta= 0.70
     Davidson diagonalization with overlap

---- Real-time Memory Report at c_bands before calling an iterative solver
            95 MiB given to the printing process from OS
             0 MiB allocation reported by mallinfo(arena+hblkhd)
          2593 MiB available memory on the node where the printing process lives
------------------
     ethr =  3.46E-10,  avg # of iterations =  5.4

     total cpu time spent up to now is      218.2 secs

     total energy              =   -1410.97185568 Ry
     estimated scf accuracy    <       0.00000032 Ry

     total magnetization       =    15.96 Bohr mag/cell
     absolute magnetization    =    16.05 Bohr mag/cell

     iteration # 23     ecut=    30.00 Ry     beta= 0.70
     Davidson diagonalization with overlap

---- Real-time Memory Report at c_bands before calling an iterative solver
            95 MiB given to the printing process from OS
             0 MiB allocation reported by mallinfo(arena+hblkhd)
          2587 MiB available memory on the node where the printing process lives
------------------
     ethr =  3.46E-10,  avg # of iterations =  1.7

     total cpu time spent up to now is      226.5 secs

     total energy              =   -1410.97185571 Ry
     estimated scf accuracy    <       0.00000003 Ry

     total magnetization       =    15.96 Bohr mag/cell
     absolute magnetization    =    16.05 Bohr mag/cell

     iteration # 24     ecut=    30.00 Ry     beta= 0.70
     Davidson diagonalization with overlap

---- Real-time Memory Report at c_bands before calling an iterative solver
            95 MiB given to the printing process from OS
             0 MiB allocation reported by mallinfo(arena+hblkhd)
          2587 MiB available memory on the node where the printing process lives
------------------
     c_bands:  1 eigenvalues not converged
     ethr =  3.14E-11,  avg # of iterations =  7.1

     total cpu time spent up to now is      237.3 secs

     total energy              =   -1410.97185574 Ry
     estimated scf accuracy    <       0.00000004 Ry

     total magnetization       =    15.96 Bohr mag/cell
     absolute magnetization    =    16.05 Bohr mag/cell

     iteration # 25     ecut=    30.00 Ry     beta= 0.70
     Davidson diagonalization with overlap

---- Real-time Memory Report at c_bands before calling an iterative solver
            95 MiB given to the printing process from OS
             0 MiB allocation reported by mallinfo(arena+hblkhd)
          2600 MiB available memory on the node where the printing process lives
------------------
     ethr =  3.14E-11,  avg # of iterations =  2.3

     total cpu time spent up to now is      245.0 secs

     total energy              =   -1410.97185574 Ry
     estimated scf accuracy    <       0.00000001 Ry

     total magnetization       =    15.96 Bohr mag/cell
     absolute magnetization    =    16.05 Bohr mag/cell

     iteration # 26     ecut=    30.00 Ry     beta= 0.70
     Davidson diagonalization with overlap

---- Real-time Memory Report at c_bands before calling an iterative solver
            95 MiB given to the printing process from OS
             0 MiB allocation reported by mallinfo(arena+hblkhd)
          2584 MiB available memory on the node where the printing process lives
------------------
     c_bands:  1 eigenvalues not converged
     ethr =  1.29E-11,  avg # of iterations =  7.9

     total cpu time spent up to now is      258.0 secs

     total energy              =   -1410.97185576 Ry
     estimated scf accuracy    <          9.7E-09 Ry

     total magnetization       =    15.96 Bohr mag/cell
     absolute magnetization    =    16.05 Bohr mag/cell

     iteration # 27     ecut=    30.00 Ry     beta= 0.70
     Davidson diagonalization with overlap

---- Real-time Memory Report at c_bands before calling an iterative solver
            95 MiB given to the printing process from OS
             0 MiB allocation reported by mallinfo(arena+hblkhd)
          2612 MiB available memory on the node where the printing process lives
------------------
     ethr =  1.15E-11,  avg # of iterations =  4.0

     total cpu time spent up to now is      267.0 secs

     total energy              =   -1410.97185576 Ry
     estimated scf accuracy    <          1.7E-09 Ry

     total magnetization       =    15.96 Bohr mag/cell
     absolute magnetization    =    16.05 Bohr mag/cell

     iteration # 28     ecut=    30.00 Ry     beta= 0.70
     Davidson diagonalization with overlap

---- Real-time Memory Report at c_bands before calling an iterative solver
            95 MiB given to the printing process from OS
             0 MiB allocation reported by mallinfo(arena+hblkhd)
          2587 MiB available memory on the node where the printing process lives
------------------
     ethr =  1.97E-12,  avg # of iterations =  5.7

     total cpu time spent up to now is      277.6 secs

     total energy              =   -1410.97185576 Ry
     estimated scf accuracy    <          3.9E-09 Ry

     total magnetization       =    15.96 Bohr mag/cell
     absolute magnetization    =    16.05 Bohr mag/cell

     iteration # 29     ecut=    30.00 Ry     beta= 0.70
     Davidson diagonalization with overlap

---- Real-time Memory Report at c_bands before calling an iterative solver
            95 MiB given to the printing process from OS
             0 MiB allocation reported by mallinfo(arena+hblkhd)
          2598 MiB available memory on the node where the printing process lives
------------------
     c_bands:  1 eigenvalues not converged
     ethr =  1.97E-12,  avg # of iterations =  4.9

     total cpu time spent up to now is      286.6 secs

     total energy              =   -1410.97185576 Ry
     estimated scf accuracy    <          1.4E-09 Ry

     total magnetization       =    15.96 Bohr mag/cell
     absolute magnetization    =    16.05 Bohr mag/cell

     iteration # 30     ecut=    30.00 Ry     beta= 0.70
     Davidson diagonalization with overlap

---- Real-time Memory Report at c_bands before calling an iterative solver
            95 MiB given to the printing process from OS
             0 MiB allocation reported by mallinfo(arena+hblkhd)
          2611 MiB available memory on the node where the printing process lives
------------------
     ethr =  1.68E-12,  avg # of iterations =  4.3

     total cpu time spent up to now is      295.7 secs

     total energy              =   -1410.97185576 Ry
     estimated scf accuracy    <          1.3E-09 Ry

     total magnetization       =    15.96 Bohr mag/cell
     absolute magnetization    =    16.05 Bohr mag/cell

     iteration # 31     ecut=    30.00 Ry     beta= 0.70
     Davidson diagonalization with overlap

---- Real-time Memory Report at c_bands before calling an iterative solver
            95 MiB given to the printing process from OS
             0 MiB allocation reported by mallinfo(arena+hblkhd)
          2569 MiB available memory on the node where the printing process lives
------------------
     ethr =  1.57E-12,  avg # of iterations =  1.8

     total cpu time spent up to now is      304.4 secs

     total energy              =   -1410.97185576 Ry
     estimated scf accuracy    <          8.1E-10 Ry

     total magnetization       =    15.96 Bohr mag/cell
     absolute magnetization    =    16.05 Bohr mag/cell

     iteration # 32     ecut=    30.00 Ry     beta= 0.70
     Davidson diagonalization with overlap

---- Real-time Memory Report at c_bands before calling an iterative solver
            95 MiB given to the printing process from OS
             0 MiB allocation reported by mallinfo(arena+hblkhd)
          2590 MiB available memory on the node where the printing process lives
------------------
     ethr =  9.70E-13,  avg # of iterations =  5.5

     total cpu time spent up to now is      313.0 secs

     total energy              =   -1410.97185576 Ry
     estimated scf accuracy    <          9.6E-10 Ry

     total magnetization       =    15.96 Bohr mag/cell
     absolute magnetization    =    16.05 Bohr mag/cell

     iteration # 33     ecut=    30.00 Ry     beta= 0.70
     Davidson diagonalization with overlap

---- Real-time Memory Report at c_bands before calling an iterative solver
            95 MiB given to the printing process from OS
             0 MiB allocation reported by mallinfo(arena+hblkhd)
          2612 MiB available memory on the node where the printing process lives
------------------
     ethr =  9.70E-13,  avg # of iterations =  3.7

     total cpu time spent up to now is      326.4 secs

     total energy              =   -1410.97185576 Ry
     estimated scf accuracy    <          5.1E-10 Ry

     total magnetization       =    15.96 Bohr mag/cell
     absolute magnetization    =    16.05 Bohr mag/cell

     iteration # 34     ecut=    30.00 Ry     beta= 0.70
     Davidson diagonalization with overlap

---- Real-time Memory Report at c_bands before calling an iterative solver
            95 MiB given to the printing process from OS
             0 MiB allocation reported by mallinfo(arena+hblkhd)
          2546 MiB available memory on the node where the printing process lives
------------------
     ethr =  6.10E-13,  avg # of iterations =  4.0

     total cpu time spent up to now is      334.8 secs

     total energy              =   -1410.97185576 Ry
     estimated scf accuracy    <          2.9E-10 Ry

     total magnetization       =    15.96 Bohr mag/cell
     absolute magnetization    =    16.05 Bohr mag/cell

     iteration # 35     ecut=    30.00 Ry     beta= 0.70
     Davidson diagonalization with overlap

---- Real-time Memory Report at c_bands before calling an iterative solver
            95 MiB given to the printing process from OS
             0 MiB allocation reported by mallinfo(arena+hblkhd)
          2620 MiB available memory on the node where the printing process lives
------------------
     c_bands:  1 eigenvalues not converged
     ethr =  3.44E-13,  avg # of iterations =  5.7

     total cpu time spent up to now is      344.4 secs

     total energy              =   -1410.97185576 Ry
     estimated scf accuracy    <          3.3E-10 Ry

     total magnetization       =    15.96 Bohr mag/cell
     absolute magnetization    =    16.05 Bohr mag/cell

     iteration # 36     ecut=    30.00 Ry     beta= 0.70
     Davidson diagonalization with overlap

---- Real-time Memory Report at c_bands before calling an iterative solver
            95 MiB given to the printing process from OS
             0 MiB allocation reported by mallinfo(arena+hblkhd)
          2605 MiB available memory on the node where the printing process lives
------------------
     ethr =  3.44E-13,  avg # of iterations =  1.1

     total cpu time spent up to now is      353.6 secs

     total energy              =   -1410.97185576 Ry
     estimated scf accuracy    <          2.5E-10 Ry

     total magnetization       =    15.96 Bohr mag/cell
     absolute magnetization    =    16.05 Bohr mag/cell

     iteration # 37     ecut=    30.00 Ry     beta= 0.70
     Davidson diagonalization with overlap

---- Real-time Memory Report at c_bands before calling an iterative solver
            95 MiB given to the printing process from OS
             0 MiB allocation reported by mallinfo(arena+hblkhd)
          2456 MiB available memory on the node where the printing process lives
------------------
     ethr =  2.97E-13,  avg # of iterations =  2.4

     Magnetic moment per site  (integrated on atomic sphere of radius R)
     atom   1 (R=0.125)  charge= 12.8790  magn=  3.5303
     atom   2 (R=0.125)  charge= 12.8789  magn=  3.5304
     atom   3 (R=0.125)  charge= 12.8789  magn=  3.5304
     atom   4 (R=0.125)  charge= 12.8790  magn=  3.5303
     atom   5 (R=0.125)  charge=  4.0499  magn=  0.0022
     atom   6 (R=0.125)  charge=  4.0498  magn=  0.0021
     atom   7 (R=0.125)  charge=  4.0498  magn=  0.0021
     atom   8 (R=0.125)  charge=  4.0499  magn=  0.0022

     total cpu time spent up to now is      363.3 secs

     End of self-consistent calculation

 ------ SPIN UP ------------


          k = 0.0000 0.0000 0.0000 (  3203 PWs)   bands (ev):

   -74.2422 -74.2417 -74.2415 -74.2414 -42.9690 -42.9683 -42.9680 -42.9673
   -42.9658 -42.9655 -42.9646 -42.9636 -42.9623 -42.9609 -42.9608 -42.9602
    -6.3582  -5.6573  -5.6569  -5.4362   1.8071   1.9359   1.9373   2.9073
     2.9443   2.9948   3.1941   3.1965   3.1969   3.2005   3.5082   3.6396
     4.8473   4.8490   4.8770   5.0147   5.0148   5.0448   5.0474   5.1578
     5.2989   5.2998   5.4004   5.9221   6.0391   7.1930   7.1981   7.2351
     7.2394   8.2654

     occupation numbers 
     1.0000   1.0000   1.0000   1.0000   1.0000   1.0000   1.0000   1.0000
     1.0000   1.0000   1.0000   1.0000   1.0000   1.0000   1.0000   1.0000
     1.0000   1.0000   1.0000   1.0000   1.0000   1.0000   1.0000   1.0000
     1.0000   1.0000   1.0000   1.0000   1.0000   1.0000   1.0000   1.0000
     1.0000   1.0000   1.0000   1.0000   1.0000   1.0000   1.0000   1.0000
     1.0000   1.0000   1.0000   1.0000   1.0000   1.0000   1.0000   1.0000
     1.0000   0.0005

          k = 0.0000 0.0000 0.4899 (  3184 PWs)   bands (ev):

   -74.2418 -74.2417 -74.2416 -74.2413 -42.9685 -42.9684 -42.9683 -42.9682
   -42.9659 -42.9657 -42.9643 -42.9634 -42.9625 -42.9612 -42.9611 -42.9600
    -6.1370  -5.5865  -5.5862  -5.5198   2.0776   2.1421   2.1428   2.6115
     3.0073   3.0412   3.0458   3.0475   3.2443   3.2931   3.2956   3.3719
     4.8583   4.8846   4.8846   4.8868   4.8878   5.0284   5.0290   5.0973
     5.3792   5.3804   5.4096   6.2780   6.4819   6.5719   6.5733   6.7613
     6.7659   6.8749

     occupation numbers 
     1.0000   1.0000   1.0000   1.0000   1.0000   1.0000   1.0000   1.0000
     1.0000   1.0000   1.0000   1.0000   1.0000   1.0000   1.0000   1.0000
     1.0000   1.0000   1.0000   1.0000   1.0000   1.0000   1.0000   1.0000
     1.0000   1.0000   1.0000   1.0000   1.0000   1.0000   1.0000   1.0000
     1.0000   1.0000   1.0000   1.0000   1.0000   1.0000   1.0000   1.0000
     1.0000   1.0000   1.0000   1.0000   1.0000   1.0000   1.0000   1.0000
     1.0000   1.0000

          k = 0.0000 0.0000 0.9798 (  3151 PWs)   bands (ev):

   -74.2416 -74.2415 -74.2414 -74.2413 -42.9699 -42.9689 -42.9687 -42.9679
   -42.9656 -42.9653 -42.9639 -42.9637 -42.9628 -42.9613 -42.9612 -42.9604
    -5.7408  -5.6434  -5.4588  -5.4587   1.8983   1.8984   2.0395   2.0689
     3.0922   3.1048   3.1143   3.1767   3.4850   3.4869   3.5226   3.5250
     4.8477   4.8482   4.9800   4.9970   5.0133   5.0337   5.1821   5.1823
     5.3866   5.4043   5.4052   5.5732   6.0572   6.0601   6.1268   6.1314
     7.0701   7.1453

     occupation numbers 
     1.0000   1.0000   1.0000   1.0000   1.0000   1.0000   1.0000   1.0000
     1.0000   1.0000   1.0000   1.0000   1.0000   1.0000   1.0000   1.0000
     1.0000   1.0000   1.0000   1.0000   1.0000   1.0000   1.0000   1.0000
     1.0000   1.0000   1.0000   1.0000   1.0000   1.0000   1.0000   1.0000
     1.0000   1.0000   1.0000   1.0000   1.0000   1.0000   1.0000   1.0000
     1.0000   1.0000   1.0000   1.0000   1.0000   1.0000   1.0000   1.0000
     1.0000   1.0000

          k = 0.0000 0.3849-0.1361 (  3185 PWs)   bands (ev):

   -74.2418 -74.2418 -74.2415 -74.2414 -42.9687 -42.9682 -42.9680 -42.9672
   -42.9655 -42.9651 -42.9648 -42.9639 -42.9620 -42.9613 -42.9607 -42.9601
    -6.1975  -5.8497  -5.6060  -5.4960   2.0242   2.1205   2.1684   2.6529
     3.0245   3.0408   3.0740   3.1366   3.1554   3.2454   3.2915   3.5100
     4.8295   4.8766   4.8823   4.9013   4.9164   4.9231   5.0605   5.1265
     5.3941   5.4062   5.8751   6.1860   6.2705   6.7039   6.9014   7.1899
     7.4918   7.5103

     occupation numbers 
     1.0000   1.0000   1.0000   1.0000   1.0000   1.0000   1.0000   1.0000
     1.0000   1.0000   1.0000   1.0000   1.0000   1.0000   1.0000   1.0000
     1.0000   1.0000   1.0000   1.0000   1.0000   1.0000   1.0000   1.0000
     1.0000   1.0000   1.0000   1.0000   1.0000   1.0000   1.0000   1.0000
     1.0000   1.0000   1.0000   1.0000   1.0000   1.0000   1.0000   1.0000
     1.0000   1.0000   1.0000   1.0000   1.0000   1.0000   1.0000   1.0000
     1.0000   1.0000

          k = 0.0000 0.3849 0.3538 (  3165 PWs)   bands (ev):

   -74.2419 -74.2416 -74.2414 -74.2413 -42.9689 -42.9688 -42.9678 -42.9677
   -42.9653 -42.9651 -42.9647 -42.9639 -42.9621 -42.9615 -42.9608 -42.9604
    -6.1021  -5.6689  -5.6283  -5.4354   2.2453   2.2549   2.2690   2.5362
     2.9114   2.9710   2.9789   3.0729   3.0796   3.2559   3.2663   3.5565
     4.7668   4.8645   4.8819   4.9188   4.9509   5.0407   5.0411   5.0537
     5.2771   5.6114   5.6752   5.7515   6.3116   6.3884   6.4187   7.2149
     7.2381   7.2992

     occupation numbers 
     1.0000   1.0000   1.0000   1.0000   1.0000   1.0000   1.0000   1.0000
     1.0000   1.0000   1.0000   1.0000   1.0000   1.0000   1.0000   1.0000
     1.0000   1.0000   1.0000   1.0000   1.0000   1.0000   1.0000   1.0000
     1.0000   1.0000   1.0000   1.0000   1.0000   1.0000   1.0000   1.0000
     1.0000   1.0000   1.0000   1.0000   1.0000   1.0000   1.0000   1.0000
     1.0000   1.0000   1.0000   1.0000   1.0000   1.0000   1.0000   1.0000
     1.0000   1.0000

          k = 0.0000 0.3849 0.8437 (  3166 PWs)   bands (ev):

   -74.2416 -74.2415 -74.2415 -74.2414 -42.9693 -42.9693 -42.9685 -42.9684
   -42.9653 -42.9650 -42.9644 -42.9642 -42.9625 -42.9616 -42.9611 -42.9607
    -5.7393  -5.5712  -5.5397  -5.4664   2.1171   2.1974   2.2390   2.2822
     2.8490   3.0021   3.0665   3.1425   3.1797   3.3272   3.4013   3.4053
     4.8031   4.8268   4.8407   4.8974   5.0223   5.0346   5.0816   5.0890
     5.3893   5.4414   5.6479   5.8112   5.9512   6.1476   6.2709   6.5114
     6.6652   6.7787

     occupation numbers 
     1.0000   1.0000   1.0000   1.0000   1.0000   1.0000   1.0000   1.0000
     1.0000   1.0000   1.0000   1.0000   1.0000   1.0000   1.0000   1.0000
     1.0000   1.0000   1.0000   1.0000   1.0000   1.0000   1.0000   1.0000
     1.0000   1.0000   1.0000   1.0000   1.0000   1.0000   1.0000   1.0000
     1.0000   1.0000   1.0000   1.0000   1.0000   1.0000   1.0000   1.0000
     1.0000   1.0000   1.0000   1.0000   1.0000   1.0000   1.0000   1.0000
     1.0000   1.0000

          k = 0.0000 0.3849-1.1159 (  3158 PWs)   bands (ev):

   -74.2416 -74.2415 -74.2415 -74.2413 -42.9699 -42.9690 -42.9687 -42.9679
   -42.9651 -42.9649 -42.9644 -42.9642 -42.9624 -42.9617 -42.9611 -42.9606
    -5.6610  -5.6086  -5.5998  -5.4444   1.9718   2.0699   2.1563   2.1910
     2.9259   3.0074   3.2050   3.2127   3.2147   3.3844   3.3966   3.5404
     4.7296   4.9100   4.9226   4.9825   5.0254   5.0544   5.0756   5.1495
     5.3058   5.4342   5.5271   5.8575   5.9591   6.3054   6.3678   6.3963
     6.5697   6.7138

     occupation numbers 
     1.0000   1.0000   1.0000   1.0000   1.0000   1.0000   1.0000   1.0000
     1.0000   1.0000   1.0000   1.0000   1.0000   1.0000   1.0000   1.0000
     1.0000   1.0000   1.0000   1.0000   1.0000   1.0000   1.0000   1.0000
     1.0000   1.0000   1.0000   1.0000   1.0000   1.0000   1.0000   1.0000
     1.0000   1.0000   1.0000   1.0000   1.0000   1.0000   1.0000   1.0000
     1.0000   1.0000   1.0000   1.0000   1.0000   1.0000   1.0000   1.0000
     1.0000   1.0000

          k = 0.0000 0.3849-0.6260 (  3178 PWs)   bands (ev):

   -74.2418 -74.2417 -74.2415 -74.2414 -42.9688 -42.9687 -42.9680 -42.9678
   -42.9655 -42.9652 -42.9646 -42.9642 -42.9622 -42.9614 -42.9609 -42.9603
    -5.9123  -5.8354  -5.6377  -5.4701   2.2262   2.2593   2.3813   2.4417
     2.7493   2.9665   3.0061   3.1309   3.1908   3.2070   3.3194   3.4821
     4.7227   4.8106   4.8266   4.8312   5.0093   5.0273   5.0328   5.0719
     5.4046   5.7763   5.8466   6.1643   6.2803   6.3809   6.5403   6.8296
     6.9733   7.0582

     occupation numbers 
     1.0000   1.0000   1.0000   1.0000   1.0000   1.0000   1.0000   1.0000
     1.0000   1.0000   1.0000   1.0000   1.0000   1.0000   1.0000   1.0000
     1.0000   1.0000   1.0000   1.0000   1.0000   1.0000   1.0000   1.0000
     1.0000   1.0000   1.0000   1.0000   1.0000   1.0000   1.0000   1.0000
     1.0000   1.0000   1.0000   1.0000   1.0000   1.0000   1.0000   1.0000
     1.0000   1.0000   1.0000   1.0000   1.0000   1.0000   1.0000   1.0000
     1.0000   1.0000

          k = 0.3333 0.1925-0.2722 (  3186 PWs)   bands (ev):

   -74.2419 -74.2416 -74.2416 -74.2415 -42.9686 -42.9680 -42.9678 -42.9675
   -42.9658 -42.9655 -42.9643 -42.9637 -42.9618 -42.9610 -42.9609 -42.9606
    -6.1463  -5.6868  -5.6689  -5.6686   2.0248   2.2042   2.2053   2.5932
     3.0038   3.0054   3.0179   3.1067   3.2625   3.2647   3.2978   3.4056
     4.6733   4.7732   4.8947   4.8963   4.9241   5.0324   5.0326   5.0689
     5.6028   5.6042   6.2882   6.4835   6.4867   6.4888   6.5810   7.3186
     7.3206   7.4177

     occupation numbers 
     1.0000   1.0000   1.0000   1.0000   1.0000   1.0000   1.0000   1.0000
     1.0000   1.0000   1.0000   1.0000   1.0000   1.0000   1.0000   1.0000
     1.0000   1.0000   1.0000   1.0000   1.0000   1.0000   1.0000   1.0000
     1.0000   1.0000   1.0000   1.0000   1.0000   1.0000   1.0000   1.0000
     1.0000   1.0000   1.0000   1.0000   1.0000   1.0000   1.0000   1.0000
     1.0000   1.0000   1.0000   1.0000   1.0000   1.0000   1.0000   1.0000
     1.0000   1.0000

          k = 0.3333 0.1925 0.2177 (  3178 PWs)   bands (ev):

   -74.2419 -74.2416 -74.2415 -74.2414 -42.9693 -42.9685 -42.9683 -42.9673
   -42.9657 -42.9655 -42.9644 -42.9634 -42.9619 -42.9612 -42.9611 -42.9608
    -6.1738  -5.5840  -5.5837  -5.4790   2.0667   2.1451   2.1460   2.6587
     2.9990   3.0155   3.0180   3.0425   3.2539   3.2993   3.3016   3.3921
     4.8518   4.8544   4.9015   4.9158   4.9178   5.0319   5.0330   5.0862
     5.3558   5.3670   5.3681   6.0970   6.3960   6.5859   6.5877   6.8490
     6.8534   7.0778

     occupation numbers 
     1.0000   1.0000   1.0000   1.0000   1.0000   1.0000   1.0000   1.0000
     1.0000   1.0000   1.0000   1.0000   1.0000   1.0000   1.0000   1.0000
     1.0000   1.0000   1.0000   1.0000   1.0000   1.0000   1.0000   1.0000
     1.0000   1.0000   1.0000   1.0000   1.0000   1.0000   1.0000   1.0000
     1.0000   1.0000   1.0000   1.0000   1.0000   1.0000   1.0000   1.0000
     1.0000   1.0000   1.0000   1.0000   1.0000   1.0000   1.0000   1.0000
     1.0000   1.0000

          k = 0.3333 0.1925 0.7076 (  3164 PWs)   bands (ev):

   -74.2417 -74.2415 -74.2414 -74.2413 -42.9691 -42.9689 -42.9688 -42.9687
   -42.9656 -42.9654 -42.9641 -42.9636 -42.9622 -42.9615 -42.9614 -42.9611
    -5.8494  -5.5533  -5.4545  -5.4543   2.3585   2.4026   2.4029   2.4527
     2.7002   2.7936   2.7944   2.9660   3.1218   3.2757   3.5125   3.5133
     4.8094   4.8511   4.8513   4.9062   4.9345   5.0217   5.0232   5.0389
     5.3657   5.3661   5.6641   5.7871   5.7874   5.9771   6.1954   6.4726
     6.4743   6.7397

     occupation numbers 
     1.0000   1.0000   1.0000   1.0000   1.0000   1.0000   1.0000   1.0000
     1.0000   1.0000   1.0000   1.0000   1.0000   1.0000   1.0000   1.0000
     1.0000   1.0000   1.0000   1.0000   1.0000   1.0000   1.0000   1.0000
     1.0000   1.0000   1.0000   1.0000   1.0000   1.0000   1.0000   1.0000
     1.0000   1.0000   1.0000   1.0000   1.0000   1.0000   1.0000   1.0000
     1.0000   1.0000   1.0000   1.0000   1.0000   1.0000   1.0000   1.0000
     1.0000   1.0000

          k = 0.3333 0.1925-1.2520 (  3156 PWs)   bands (ev):

   -74.2416 -74.2415 -74.2414 -74.2413 -42.9700 -42.9690 -42.9688 -42.9679
   -42.9654 -42.9652 -42.9640 -42.9636 -42.9621 -42.9615 -42.9614 -42.9611
    -5.7955  -5.5959  -5.4570  -5.4569   2.0360   2.0363   2.1657   2.1675
     2.9502   3.1065   3.1273   3.2016   3.2590   3.2593   3.5270   3.5285
     4.8626   4.8634   4.8990   5.0015   5.0124   5.0271   5.1000   5.1004
     5.3306   5.3310   5.3706   5.7938   5.9604   5.9608   6.2869   6.2890
     6.6372   7.0798

     occupation numbers 
     1.0000   1.0000   1.0000   1.0000   1.0000   1.0000   1.0000   1.0000
     1.0000   1.0000   1.0000   1.0000   1.0000   1.0000   1.0000   1.0000
     1.0000   1.0000   1.0000   1.0000   1.0000   1.0000   1.0000   1.0000
     1.0000   1.0000   1.0000   1.0000   1.0000   1.0000   1.0000   1.0000
     1.0000   1.0000   1.0000   1.0000   1.0000   1.0000   1.0000   1.0000
     1.0000   1.0000   1.0000   1.0000   1.0000   1.0000   1.0000   1.0000
     1.0000   1.0000

          k = 0.3333 0.1925-0.7621 (  3171 PWs)   bands (ev):

   -74.2417 -74.2416 -74.2415 -74.2414 -42.9691 -42.9684 -42.9682 -42.9675
   -42.9657 -42.9654 -42.9640 -42.9637 -42.9620 -42.9612 -42.9611 -42.9608
    -5.8758  -5.7984  -5.5934  -5.5933   2.1603   2.1604   2.2302   2.2848
     3.1076   3.1076   3.1255   3.1289   3.1340   3.1454   3.3986   3.3993
     4.7992   4.8055   4.8142   4.8147   5.0153   5.0611   5.0657   5.0658
     5.6839   5.6845   6.0081   6.1144   6.1153   6.1760   6.7909   6.7913
     7.0854   7.1794

     occupation numbers 
     1.0000   1.0000   1.0000   1.0000   1.0000   1.0000   1.0000   1.0000
     1.0000   1.0000   1.0000   1.0000   1.0000   1.0000   1.0000   1.0000
     1.0000   1.0000   1.0000   1.0000   1.0000   1.0000   1.0000   1.0000
     1.0000   1.0000   1.0000   1.0000   1.0000   1.0000   1.0000   1.0000
     1.0000   1.0000   1.0000   1.0000   1.0000   1.0000   1.0000   1.0000
     1.0000   1.0000   1.0000   1.0000   1.0000   1.0000   1.0000   1.0000
     1.0000   1.0000

          k = 0.3333-0.5774 0.0000 (  3195 PWs)   bands (ev):

   -74.2418 -74.2418 -74.2417 -74.2415 -42.9684 -42.9682 -42.9680 -42.9675
   -42.9657 -42.9649 -42.9645 -42.9643 -42.9617 -42.9612 -42.9611 -42.9605
    -5.9728  -5.8597  -5.8594  -5.4889   2.2608   2.2616   2.3949   2.4686
     2.7249   3.0602   3.0941   3.0958   3.1515   3.2179   3.2200   3.4167
     4.7514   4.7524   4.7645   4.8180   4.9609   4.9825   5.0263   5.0279
     5.5881   5.8213   6.2523   6.2533   6.5727   6.6778   6.9395   7.0758
     7.0776   7.2644

     occupation numbers 
     1.0000   1.0000   1.0000   1.0000   1.0000   1.0000   1.0000   1.0000
     1.0000   1.0000   1.0000   1.0000   1.0000   1.0000   1.0000   1.0000
     1.0000   1.0000   1.0000   1.0000   1.0000   1.0000   1.0000   1.0000
     1.0000   1.0000   1.0000   1.0000   1.0000   1.0000   1.0000   1.0000
     1.0000   1.0000   1.0000   1.0000   1.0000   1.0000   1.0000   1.0000
     1.0000   1.0000   1.0000   1.0000   1.0000   1.0000   1.0000   1.0000
     1.0000   1.0000

          k = 0.3333-0.5774 0.4899 (  3179 PWs)   bands (ev):

   -74.2418 -74.2417 -74.2415 -74.2414 -42.9692 -42.9684 -42.9683 -42.9674
   -42.9654 -42.9649 -42.9646 -42.9642 -42.9619 -42.9613 -42.9612 -42.9607
    -5.9703  -5.8144  -5.5772  -5.4895   2.2232   2.2554   2.4123   2.4187
     2.7657   2.9431   3.0318   3.1273   3.1345   3.2194   3.3652   3.4377
     4.7453   4.8095   4.8286   4.8563   4.9811   5.0244   5.0400   5.0602
     5.4405   5.6721   5.9450   6.0319   6.1426   6.5608   6.6158   6.8459
     6.9222   6.9967

     occupation numbers 
     1.0000   1.0000   1.0000   1.0000   1.0000   1.0000   1.0000   1.0000
     1.0000   1.0000   1.0000   1.0000   1.0000   1.0000   1.0000   1.0000
     1.0000   1.0000   1.0000   1.0000   1.0000   1.0000   1.0000   1.0000
     1.0000   1.0000   1.0000   1.0000   1.0000   1.0000   1.0000   1.0000
     1.0000   1.0000   1.0000   1.0000   1.0000   1.0000   1.0000   1.0000
     1.0000   1.0000   1.0000   1.0000   1.0000   1.0000   1.0000   1.0000
     1.0000   1.0000

          k = 0.3333-0.5774 0.9798 (  3173 PWs)   bands (ev):

   -74.2417 -74.2416 -74.2415 -74.2414 -42.9695 -42.9693 -42.9684 -42.9684
   -42.9653 -42.9650 -42.9645 -42.9642 -42.9622 -42.9616 -42.9614 -42.9609
    -5.7686  -5.5418  -5.5169  -5.4914   2.2185   2.3078   2.3638   2.4446
     2.7301   2.7869   2.8722   3.0825   3.2263   3.3804   3.3859   3.3948
     4.7613   4.7939   4.8791   4.8872   4.9632   5.0230   5.0348   5.0896
     5.5048   5.5258   5.5894   5.8635   5.9684   5.9736   6.0850   6.6756
     6.6956   6.7131

     occupation numbers 
     1.0000   1.0000   1.0000   1.0000   1.0000   1.0000   1.0000   1.0000
     1.0000   1.0000   1.0000   1.0000   1.0000   1.0000   1.0000   1.0000
     1.0000   1.0000   1.0000   1.0000   1.0000   1.0000   1.0000   1.0000
     1.0000   1.0000   1.0000   1.0000   1.0000   1.0000   1.0000   1.0000
     1.0000   1.0000   1.0000   1.0000   1.0000   1.0000   1.0000   1.0000
     1.0000   1.0000   1.0000   1.0000   1.0000   1.0000   1.0000   1.0000
     1.0000   1.0000

          k =-0.3333 0.1925 0.1361 (  3185 PWs)   bands (ev):

   -74.2418 -74.2418 -74.2415 -74.2414 -42.9688 -42.9684 -42.9678 -42.9671
   -42.9654 -42.9652 -42.9648 -42.9639 -42.9620 -42.9612 -42.9608 -42.9602
    -6.1974  -5.8494  -5.6063  -5.4961   2.0244   2.1218   2.1671   2.6517
     3.0259   3.0384   3.0749   3.1385   3.1583   3.2442   3.2883   3.5086
     4.8316   4.8764   4.8816   4.9008   4.9176   4.9210   5.0628   5.1277
     5.3933   5.4057   5.8766   6.1860   6.2713   6.7067   6.9043   7.1928
     7.4870   7.5072

     occupation numbers 
     1.0000   1.0000   1.0000   1.0000   1.0000   1.0000   1.0000   1.0000
     1.0000   1.0000   1.0000   1.0000   1.0000   1.0000   1.0000   1.0000
     1.0000   1.0000   1.0000   1.0000   1.0000   1.0000   1.0000   1.0000
     1.0000   1.0000   1.0000   1.0000   1.0000   1.0000   1.0000   1.0000
     1.0000   1.0000   1.0000   1.0000   1.0000   1.0000   1.0000   1.0000
     1.0000   1.0000   1.0000   1.0000   1.0000   1.0000   1.0000   1.0000
     1.0000   1.0000

          k =-0.3333 0.1925-0.3538 (  3165 PWs)   bands (ev):

   -74.2419 -74.2416 -74.2414 -74.2413 -42.9688 -42.9687 -42.9680 -42.9678
   -42.9653 -42.9651 -42.9647 -42.9638 -42.9621 -42.9614 -42.9608 -42.9604
    -6.1021  -5.6692  -5.6280  -5.4354   2.2464   2.2549   2.2679   2.5364
     2.9144   2.9678   2.9792   3.0735   3.0785   3.2542   3.2682   3.5564
     4.7668   4.8653   4.8812   4.9184   4.9511   5.0381   5.0413   5.0561
     5.2769   5.6120   5.6745   5.7515   6.3097   6.3882   6.4210   7.2114
     7.2377   7.3025

     occupation numbers 
     1.0000   1.0000   1.0000   1.0000   1.0000   1.0000   1.0000   1.0000
     1.0000   1.0000   1.0000   1.0000   1.0000   1.0000   1.0000   1.0000
     1.0000   1.0000   1.0000   1.0000   1.0000   1.0000   1.0000   1.0000
     1.0000   1.0000   1.0000   1.0000   1.0000   1.0000   1.0000   1.0000
     1.0000   1.0000   1.0000   1.0000   1.0000   1.0000   1.0000   1.0000
     1.0000   1.0000   1.0000   1.0000   1.0000   1.0000   1.0000   1.0000
     1.0000   1.0000

          k =-0.3333 0.1925-0.8437 (  3166 PWs)   bands (ev):

   -74.2416 -74.2415 -74.2415 -74.2414 -42.9694 -42.9693 -42.9685 -42.9683
   -42.9653 -42.9651 -42.9645 -42.9641 -42.9625 -42.9616 -42.9612 -42.9607
    -5.7394  -5.5712  -5.5397  -5.4663   2.1174   2.1976   2.2401   2.2827
     2.8492   3.0004   3.0655   3.1403   3.1795   3.3267   3.4015   3.4066
     4.8033   4.8277   4.8407   4.8964   5.0224   5.0355   5.0826   5.0905
     5.3898   5.4415   5.6490   5.8122   5.9517   6.1466   6.2706   6.5083
     6.6652   6.7775

     occupation numbers 
     1.0000   1.0000   1.0000   1.0000   1.0000   1.0000   1.0000   1.0000
     1.0000   1.0000   1.0000   1.0000   1.0000   1.0000   1.0000   1.0000
     1.0000   1.0000   1.0000   1.0000   1.0000   1.0000   1.0000   1.0000
     1.0000   1.0000   1.0000   1.0000   1.0000   1.0000   1.0000   1.0000
     1.0000   1.0000   1.0000   1.0000   1.0000   1.0000   1.0000   1.0000
     1.0000   1.0000   1.0000   1.0000   1.0000   1.0000   1.0000   1.0000
     1.0000   1.0000

          k =-0.3333 0.1925 1.1159 (  3158 PWs)   bands (ev):

   -74.2416 -74.2415 -74.2415 -74.2413 -42.9698 -42.9689 -42.9688 -42.9679
   -42.9652 -42.9648 -42.9645 -42.9643 -42.9623 -42.9616 -42.9612 -42.9607
    -5.6610  -5.6085  -5.5998  -5.4444   1.9719   2.0702   2.1563   2.1912
     2.9267   3.0063   3.2043   3.2124   3.2147   3.3840   3.3963   3.5410
     4.7300   4.9106   4.9221   4.9834   5.0235   5.0564   5.0757   5.1499
     5.3058   5.4344   5.5273   5.8574   5.9601   6.3043   6.3702   6.3928
     6.5700   6.7133

     occupation numbers 
     1.0000   1.0000   1.0000   1.0000   1.0000   1.0000   1.0000   1.0000
     1.0000   1.0000   1.0000   1.0000   1.0000   1.0000   1.0000   1.0000
     1.0000   1.0000   1.0000   1.0000   1.0000   1.0000   1.0000   1.0000
     1.0000   1.0000   1.0000   1.0000   1.0000   1.0000   1.0000   1.0000
     1.0000   1.0000   1.0000   1.0000   1.0000   1.0000   1.0000   1.0000
     1.0000   1.0000   1.0000   1.0000   1.0000   1.0000   1.0000   1.0000
     1.0000   1.0000

          k =-0.3333 0.1925 0.6260 (  3178 PWs)   bands (ev):

   -74.2418 -74.2417 -74.2415 -74.2414 -42.9688 -42.9687 -42.9681 -42.9679
   -42.9655 -42.9650 -42.9645 -42.9642 -42.9622 -42.9613 -42.9610 -42.9604
    -5.9122  -5.8353  -5.6379  -5.4702   2.2259   2.2597   2.3806   2.4420
     2.7486   2.9643   3.0082   3.1316   3.1909   3.2089   3.3189   3.4806
     4.7217   4.8105   4.8265   4.8317   5.0076   5.0269   5.0352   5.0741
     5.4039   5.7769   5.8468   6.1640   6.2824   6.3810   6.5419   6.8290
     6.9689   7.0598

     occupation numbers 
     1.0000   1.0000   1.0000   1.0000   1.0000   1.0000   1.0000   1.0000
     1.0000   1.0000   1.0000   1.0000   1.0000   1.0000   1.0000   1.0000
     1.0000   1.0000   1.0000   1.0000   1.0000   1.0000   1.0000   1.0000
     1.0000   1.0000   1.0000   1.0000   1.0000   1.0000   1.0000   1.0000
     1.0000   1.0000   1.0000   1.0000   1.0000   1.0000   1.0000   1.0000
     1.0000   1.0000   1.0000   1.0000   1.0000   1.0000   1.0000   1.0000
     1.0000   1.0000

          k = 0.3333-0.5774-0.4899 (  3179 PWs)   bands (ev):

   -74.2418 -74.2417 -74.2415 -74.2414 -42.9692 -42.9685 -42.9683 -42.9674
   -42.9653 -42.9650 -42.9646 -42.9642 -42.9618 -42.9613 -42.9612 -42.9607
    -5.9702  -5.8142  -5.5773  -5.4897   2.2226   2.2557   2.4117   2.4192
     2.7644   2.9412   3.0337   3.1279   3.1355   3.2213   3.3648   3.4358
     4.7442   4.8091   4.8292   4.8567   4.9798   5.0263   5.0391   5.0624
     5.4401   5.6724   5.9455   6.0314   6.1446   6.5611   6.6180   6.8473
     6.9188   6.9960

     occupation numbers 
     1.0000   1.0000   1.0000   1.0000   1.0000   1.0000   1.0000   1.0000
     1.0000   1.0000   1.0000   1.0000   1.0000   1.0000   1.0000   1.0000
     1.0000   1.0000   1.0000   1.0000   1.0000   1.0000   1.0000   1.0000
     1.0000   1.0000   1.0000   1.0000   1.0000   1.0000   1.0000   1.0000
     1.0000   1.0000   1.0000   1.0000   1.0000   1.0000   1.0000   1.0000
     1.0000   1.0000   1.0000   1.0000   1.0000   1.0000   1.0000   1.0000
     1.0000   1.0000

          k = 0.3333-0.5774-0.9798 (  3173 PWs)   bands (ev):

   -74.2417 -74.2416 -74.2415 -74.2414 -42.9694 -42.9692 -42.9685 -42.9684
   -42.9653 -42.9650 -42.9646 -42.9641 -42.9622 -42.9616 -42.9615 -42.9609
    -5.7686  -5.5417  -5.5169  -5.4915   2.2184   2.3074   2.3634   2.4430
     2.7313   2.7870   2.8741   3.0830   3.2263   3.3807   3.3862   3.3939
     4.7611   4.7946   4.8795   4.8868   4.9635   5.0224   5.0329   5.0894
     5.5041   5.5260   5.5886   5.8631   5.9692   5.9746   6.0840   6.6778
     6.6961   6.7140

     occupation numbers 
     1.0000   1.0000   1.0000   1.0000   1.0000   1.0000   1.0000   1.0000
     1.0000   1.0000   1.0000   1.0000   1.0000   1.0000   1.0000   1.0000
     1.0000   1.0000   1.0000   1.0000   1.0000   1.0000   1.0000   1.0000
     1.0000   1.0000   1.0000   1.0000   1.0000   1.0000   1.0000   1.0000
     1.0000   1.0000   1.0000   1.0000   1.0000   1.0000   1.0000   1.0000
     1.0000   1.0000   1.0000   1.0000   1.0000   1.0000   1.0000   1.0000
     1.0000   1.0000

 ------ SPIN DOWN ----------


          k = 0.0000 0.0000 0.0000 (  3203 PWs)   bands (ev):

   -70.2726 -70.2721 -70.2720 -70.2719 -39.1069 -39.1060 -39.1047 -39.1030
   -39.0523 -39.0503 -39.0495 -39.0483 -39.0022 -39.0009 -39.0008 -39.0001
    -6.2270  -5.5653  -5.5648  -5.3571   2.3009   2.3055   2.4166   4.0430
     4.0777   4.1017   4.1962   4.2069   4.2277   4.2362   4.2851   4.2880
     7.3983   8.3163   8.3295   8.4440   8.4659   8.5687   8.5834   8.5838
     8.6195   8.6216   8.8710   8.8918   8.9635   9.5401   9.5450   9.6267
     9.6306   9.7285

     occupation numbers 
     1.0000   1.0000   1.0000   1.0000   1.0000   1.0000   1.0000   1.0000
     1.0000   1.0000   1.0000   1.0000   1.0000   1.0000   1.0000   1.0000
     1.0000   1.0000   1.0000   1.0000   1.0000   1.0000   1.0000   1.0000
     1.0000   1.0000   1.0000   1.0000   1.0000   1.0000   1.0000   1.0000
     1.0000   0.0001   0.0000   0.0000   0.0000   0.0000   0.0000   0.0000
     0.0000   0.0000   0.0000   0.0000   0.0000   0.0000   0.0000   0.0000
     0.0000   0.0000

          k = 0.0000 0.0000 0.4899 (  3184 PWs)   bands (ev):

   -70.2723 -70.2721 -70.2720 -70.2719 -39.1068 -39.1060 -39.1044 -39.1029
   -39.0522 -39.0504 -39.0498 -39.0483 -39.0019 -39.0017 -39.0016 -39.0015
    -6.0174  -5.4984  -5.4981  -5.4354   2.5908   2.5947   2.6622   3.4588
     3.8179   3.8620   3.8639   4.0917   4.1115   4.1492   4.1912   4.1978
     7.6759   7.9240   7.9301   8.4157   8.4424   8.4508   8.4558   8.4716
     8.6024   8.6032   8.6842   9.2798   9.3810   9.3844   9.4550   9.5524
     9.5545   9.6087

     occupation numbers 
     1.0000   1.0000   1.0000   1.0000   1.0000   1.0000   1.0000   1.0000
     1.0000   1.0000   1.0000   1.0000   1.0000   1.0000   1.0000   1.0000
     1.0000   1.0000   1.0000   1.0000   1.0000   1.0000   1.0000   1.0000
     1.0000   1.0000   1.0000   1.0000   1.0000   1.0000   1.0000   1.0000
     0.9977   0.6021   0.5774   0.0000   0.0000   0.0000   0.0000   0.0000
     0.0000   0.0000   0.0000   0.0000   0.0000   0.0000   0.0000   0.0000
     0.0000   0.0000

          k = 0.0000 0.0000 0.9798 (  3151 PWs)   bands (ev):

   -70.2721 -70.2720 -70.2718 -70.2718 -39.1065 -39.1058 -39.1039 -39.1032
   -39.0521 -39.0504 -39.0498 -39.0488 -39.0041 -39.0025 -39.0024 -39.0015
    -5.6426  -5.5511  -5.3787  -5.3786   2.4209   2.5048   2.5082   2.5085
     4.0238   4.0288   4.1042   4.1334   4.1394   4.1424   4.1642   4.1803
     7.4538   7.4545   8.3353   8.4623   8.4664   8.5171   8.5630   8.5813
     8.5884   8.6829   8.7971   8.8003   9.1191   9.1214   9.1556   9.1579
     9.5461   9.6667

     occupation numbers 
     1.0000   1.0000   1.0000   1.0000   1.0000   1.0000   1.0000   1.0000
     1.0000   1.0000   1.0000   1.0000   1.0000   1.0000   1.0000   1.0000
     1.0000   1.0000   1.0000   1.0000   1.0000   1.0000   1.0000   1.0000
     1.0000   1.0000   1.0000   1.0000   1.0000   1.0000   1.0000   1.0000
     1.0000   1.0000   0.0000   0.0000   0.0000   0.0000   0.0000   0.0000
     0.0000   0.0000   0.0000   0.0000   0.0000   0.0000   0.0000   0.0000
     0.0000   0.0000

          k = 0.0000 0.3849-0.1361 (  3185 PWs)   bands (ev):

   -70.2723 -70.2722 -70.2720 -70.2719 -39.1063 -39.1052 -39.1052 -39.1035
   -39.0517 -39.0504 -39.0496 -39.0486 -39.0019 -39.0012 -39.0007 -39.0000
    -6.0750  -5.7463  -5.5169  -5.4133   2.5313   2.6245   2.6932   3.5521
     3.7846   3.9001   4.1283   4.1944   4.2269   4.2286   4.2652   4.2672
     7.5351   8.0037   8.4208   8.4220   8.4250   8.4343   8.4420   8.5072
     8.6356   8.7420   8.7874   9.2212   9.3222   9.4915   9.5435   9.7041
     9.8879   9.9635

     occupation numbers 
     1.0000   1.0000   1.0000   1.0000   1.0000   1.0000   1.0000   1.0000
     1.0000   1.0000   1.0000   1.0000   1.0000   1.0000   1.0000   1.0000
     1.0000   1.0000   1.0000   1.0000   1.0000   1.0000   1.0000   1.0000
     1.0000   1.0000   1.0000   1.0000   1.0000   1.0000   1.0000   1.0000
     1.0000   0.2846   0.0000   0.0000   0.0000   0.0000   0.0000   0.0000
     0.0000   0.0000   0.0000   0.0000   0.0000   0.0000   0.0000   0.0000
     0.0000   0.0000

          k = 0.0000 0.3849 0.3538 (  3165 PWs)   bands (ev):

   -70.2723 -70.2720 -70.2720 -70.2718 -39.1060 -39.1052 -39.1050 -39.1036
   -39.0517 -39.0504 -39.0497 -39.0487 -39.0023 -39.0021 -39.0011 -39.0010
    -5.9845  -5.5759  -5.5376  -5.3561   2.7085   2.7120   2.8445   3.4480
     3.5324   3.7114   3.7912   4.0302   4.0930   4.1204   4.2402   4.2702
     7.4678   8.1253   8.1436   8.2213   8.2262   8.2873   8.2948   8.6169
     8.7635   8.7734   8.8768   9.0116   9.2785   9.2870   9.5985   9.8565
     9.9213   9.9520

     occupation numbers 
     1.0000   1.0000   1.0000   1.0000   1.0000   1.0000   1.0000   1.0000
     1.0000   1.0000   1.0000   1.0000   1.0000   1.0000   1.0000   1.0000
     1.0000   1.0000   1.0000   1.0000   1.0000   1.0000   1.0000   1.0000
     1.0000   1.0000   1.0000   1.0000   1.0000   1.0000   1.0000   1.0000
     1.0000   0.0334   0.0215   0.0023   0.0020   0.0002   0.0002   0.0000
     0.0000   0.0000   0.0000   0.0000   0.0000   0.0000   0.0000   0.0000
     0.0000   0.0000

          k = 0.0000 0.3849 0.8437 (  3166 PWs)   bands (ev):

   -70.2721 -70.2720 -70.2719 -70.2719 -39.1059 -39.1052 -39.1047 -39.1039
   -39.0517 -39.0505 -39.0499 -39.0491 -39.0033 -39.0033 -39.0022 -39.0020
    -5.6415  -5.4839  -5.4537  -5.3852   2.7122   2.7176   2.7668   2.8395
     3.4154   3.6088   3.8101   3.9643   4.1247   4.1526   4.1642   4.1731
     7.5936   7.7207   7.8618   8.0656   8.3669   8.3859   8.5010   8.5383
     8.6847   8.7353   8.7901   8.8948   9.1265   9.2810   9.3258   9.4205
     9.5020   9.6017

     occupation numbers 
     1.0000   1.0000   1.0000   1.0000   1.0000   1.0000   1.0000   1.0000
     1.0000   1.0000   1.0000   1.0000   1.0000   1.0000   1.0000   1.0000
     1.0000   1.0000   1.0000   1.0000   1.0000   1.0000   1.0000   1.0000
     1.0000   1.0000   1.0000   1.0000   1.0000   1.0000   1.0000   1.0000
     0.9999   0.9912   0.8175   0.1126   0.0000   0.0000   0.0000   0.0000
     0.0000   0.0000   0.0000   0.0000   0.0000   0.0000   0.0000   0.0000
     0.0000   0.0000

          k = 0.0000 0.3849-1.1159 (  3158 PWs)   bands (ev):

   -70.2720 -70.2720 -70.2719 -70.2718 -39.1059 -39.1051 -39.1047 -39.1039
   -39.0515 -39.0506 -39.0498 -39.0493 -39.0040 -39.0027 -39.0025 -39.0014
    -5.5678  -5.5182  -5.5109  -5.3649   2.5857   2.5935   2.6360   2.6721
     3.7337   3.7749   3.8940   4.0930   4.1002   4.1111   4.1949   4.2408
     7.4667   7.5776   8.1812   8.2372   8.3137   8.4099   8.4525   8.6968
     8.7420   8.8108   8.8756   8.9241   9.0409   9.1316   9.2678   9.3669
     9.3777   9.4399

     occupation numbers 
     1.0000   1.0000   1.0000   1.0000   1.0000   1.0000   1.0000   1.0000
     1.0000   1.0000   1.0000   1.0000   1.0000   1.0000   1.0000   1.0000
     1.0000   1.0000   1.0000   1.0000   1.0000   1.0000   1.0000   1.0000
     1.0000   1.0000   1.0000   1.0000   1.0000   1.0000   1.0000   1.0000
     1.0000   0.9999   0.0079   0.0014   0.0001   0.0000   0.0000   0.0000
     0.0000   0.0000   0.0000   0.0000   0.0000   0.0000   0.0000   0.0000
     0.0000   0.0000

          k = 0.0000 0.3849-0.6260 (  3178 PWs)   bands (ev):

   -70.2722 -70.2722 -70.2720 -70.2718 -39.1062 -39.1052 -39.1049 -39.1039
   -39.0515 -39.0505 -39.0496 -39.0490 -39.0022 -39.0021 -39.0012 -39.0010
    -5.8050  -5.7329  -5.5463  -5.3889   2.8098   2.9200   2.9319   3.0640
     3.3686   3.6995   3.9181   4.1138   4.1254   4.1305   4.2069   4.2118
     7.5789   7.9243   7.9847   8.2253   8.2265   8.3267   8.5887   8.7131
     8.7812   8.8512   9.0279   9.1003   9.1455   9.1839   9.4923   9.5135
     9.6469   9.8838

     occupation numbers 
     1.0000   1.0000   1.0000   1.0000   1.0000   1.0000   1.0000   1.0000
     1.0000   1.0000   1.0000   1.0000   1.0000   1.0000   1.0000   1.0000
     1.0000   1.0000   1.0000   1.0000   1.0000   1.0000   1.0000   1.0000
     1.0000   1.0000   1.0000   1.0000   1.0000   1.0000   1.0000   1.0000
     0.9999   0.6009   0.3550   0.0020   0.0020   0.0000   0.0000   0.0000
     0.0000   0.0000   0.0000   0.0000   0.0000   0.0000   0.0000   0.0000
     0.0000   0.0000

          k = 0.3333 0.1925-0.2722 (  3186 PWs)   bands (ev):

   -70.2723 -70.2721 -70.2720 -70.2720 -39.1067 -39.1060 -39.1044 -39.1032
   -39.0513 -39.0502 -39.0496 -39.0491 -39.0017 -39.0009 -39.0008 -39.0005
    -6.0263  -5.5927  -5.5761  -5.5759   2.6484   2.6525   2.7242   3.5365
     3.8362   3.8423   4.0466   4.0612   4.1865   4.1936   4.3090   4.3103
     7.6376   8.1811   8.2118   8.2170   8.3156   8.3169   8.5650   8.7288
     8.7307   8.8162   9.2195   9.2260   9.2845   9.2882   9.2905   9.9510
     9.9531  10.0582

     occupation numbers 
     1.0000   1.0000   1.0000   1.0000   1.0000   1.0000   1.0000   1.0000
     1.0000   1.0000   1.0000   1.0000   1.0000   1.0000   1.0000   1.0000
     1.0000   1.0000   1.0000   1.0000   1.0000   1.0000   1.0000   1.0000
     1.0000   1.0000   1.0000   1.0000   1.0000   1.0000   1.0000   1.0000
     0.9994   0.0079   0.0031   0.0027   0.0001   0.0001   0.0000   0.0000
     0.0000   0.0000   0.0000   0.0000   0.0000   0.0000   0.0000   0.0000
     0.0000   0.0000

          k = 0.3333 0.1925 0.2177 (  3178 PWs)   bands (ev):

   -70.2723 -70.2720 -70.2720 -70.2719 -39.1068 -39.1059 -39.1045 -39.1029
   -39.0515 -39.0504 -39.0497 -39.0491 -39.0029 -39.0016 -39.0015 -39.0004
    -6.0522  -5.4962  -5.4958  -5.3969   2.5589   2.5632   2.6675   3.5438
     3.7400   3.8539   3.8559   4.0997   4.1071   4.1659   4.2208   4.2281
     7.5791   7.9583   7.9660   8.3675   8.4658   8.4690   8.4846   8.4881
     8.6172   8.6176   8.6380   9.2729   9.3303   9.4624   9.4634   9.5239
     9.5255   9.6889

     occupation numbers 
     1.0000   1.0000   1.0000   1.0000   1.0000   1.0000   1.0000   1.0000
     1.0000   1.0000   1.0000   1.0000   1.0000   1.0000   1.0000   1.0000
     1.0000   1.0000   1.0000   1.0000   1.0000   1.0000   1.0000   1.0000
     1.0000   1.0000   1.0000   1.0000   1.0000   1.0000   1.0000   1.0000
     0.9999   0.4614   0.4297   0.0000   0.0000   0.0000   0.0000   0.0000
     0.0000   0.0000   0.0000   0.0000   0.0000   0.0000   0.0000   0.0000
     0.0000   0.0000

          k = 0.3333 0.1925 0.7076 (  3164 PWs)   bands (ev):

   -70.2722 -70.2720 -70.2718 -70.2718 -39.1065 -39.1057 -39.1041 -39.1031
   -39.0514 -39.0505 -39.0499 -39.0496 -39.0029 -39.0028 -39.0026 -39.0025
    -5.7452  -5.4662  -5.3742  -5.3741   2.9047   2.9505   2.9526   2.9882
     3.3710   3.3744   3.3748   3.8570   4.0701   4.0747   4.1732   4.1773
     7.5328   7.5365   7.9354   8.1953   8.1961   8.2086   8.3123   8.6334
     8.7648   8.8101   8.8108   8.9778   9.1143   9.1173   9.2336   9.4696
     9.6272   9.6283

     occupation numbers 
     1.0000   1.0000   1.0000   1.0000   1.0000   1.0000   1.0000   1.0000
     1.0000   1.0000   1.0000   1.0000   1.0000   1.0000   1.0000   1.0000
     1.0000   1.0000   1.0000   1.0000   1.0000   1.0000   1.0000   1.0000
     1.0000   1.0000   1.0000   1.0000   1.0000   1.0000   1.0000   1.0000
     1.0000   1.0000   0.5557   0.0052   0.0051   0.0035   0.0001   0.0000
     0.0000   0.0000   0.0000   0.0000   0.0000   0.0000   0.0000   0.0000
     0.0000   0.0000

          k = 0.3333 0.1925-1.2520 (  3156 PWs)   bands (ev):

   -70.2721 -70.2720 -70.2718 -70.2718 -39.1064 -39.1057 -39.1040 -39.1031
   -39.0512 -39.0504 -39.0499 -39.0498 -39.0042 -39.0027 -39.0025 -39.0014
    -5.6946  -5.5061  -5.3768  -5.3767   2.5640   2.6361   2.6368   2.6593
     3.7747   3.7781   3.8135   4.1419   4.1433   4.1475   4.1541   4.1718
     7.4851   7.4865   8.1551   8.3380   8.3414   8.3564   8.4975   8.6084
     8.6474   8.7671   8.7693   8.7718   9.1197   9.1213   9.3721   9.3732
     9.4517   9.6322

     occupation numbers 
     1.0000   1.0000   1.0000   1.0000   1.0000   1.0000   1.0000   1.0000
     1.0000   1.0000   1.0000   1.0000   1.0000   1.0000   1.0000   1.0000
     1.0000   1.0000   1.0000   1.0000   1.0000   1.0000   1.0000   1.0000
     1.0000   1.0000   1.0000   1.0000   1.0000   1.0000   1.0000   1.0000
     1.0000   1.0000   0.0161   0.0000   0.0000   0.0000   0.0000   0.0000
     0.0000   0.0000   0.0000   0.0000   0.0000   0.0000   0.0000   0.0000
     0.0000   0.0000

          k = 0.3333 0.1925-0.7621 (  3171 PWs)   bands (ev):

   -70.2721 -70.2721 -70.2720 -70.2719 -39.1066 -39.1059 -39.1040 -39.1033
   -39.0511 -39.0503 -39.0497 -39.0496 -39.0026 -39.0016 -39.0015 -39.0007
    -5.7705  -5.6974  -5.5052  -5.5051   2.7429   2.7435   2.8559   2.9230
     3.7950   3.7953   4.0547   4.0809   4.0951   4.1551   4.1885   4.1897
     7.7847   7.7851   8.0602   8.1502   8.3131   8.3139   8.6369   8.7104
     8.8926   8.8939   8.9253   9.0182   9.1152   9.1169   9.5478   9.7043
     9.7308   9.7312

     occupation numbers 
     1.0000   1.0000   1.0000   1.0000   1.0000   1.0000   1.0000   1.0000
[...]
             0 MiB allocation reported by mallinfo(arena+hblkhd)
          3670 MiB available memory on the node where the printing process lives
------------------
     c_bands:  1 eigenvalues not converged
     c_bands:  3 eigenvalues not converged
     ethr =  2.77E-08,  avg # of iterations = 12.8

     total cpu time spent up to now is     3297.5 secs

     total energy              =   -1411.29375700 Ry
     estimated scf accuracy    <       0.00053002 Ry

     total magnetization       =     6.73 Bohr mag/cell
     absolute magnetization    =     7.23 Bohr mag/cell

     iteration #180     ecut=    30.00 Ry     beta= 0.70
     Davidson diagonalization with overlap

---- Real-time Memory Report at c_bands before calling an iterative solver
            96 MiB given to the printing process from OS
             0 MiB allocation reported by mallinfo(arena+hblkhd)
          3673 MiB available memory on the node where the printing process lives
------------------
     ethr =  2.77E-08,  avg # of iterations = 13.4

     total cpu time spent up to now is     3320.3 secs

     total energy              =   -1411.30327652 Ry
     estimated scf accuracy    <       0.00216047 Ry

     total magnetization       =     9.67 Bohr mag/cell
     absolute magnetization    =    10.09 Bohr mag/cell

     iteration #181     ecut=    30.00 Ry     beta= 0.70
     Davidson diagonalization with overlap

---- Real-time Memory Report at c_bands before calling an iterative solver
            96 MiB given to the printing process from OS
             0 MiB allocation reported by mallinfo(arena+hblkhd)
          3673 MiB available memory on the node where the printing process lives
------------------
     c_bands:  2 eigenvalues not converged
     c_bands:  2 eigenvalues not converged
     c_bands:  2 eigenvalues not converged
     c_bands:  1 eigenvalues not converged
     c_bands:  2 eigenvalues not converged
     c_bands:  3 eigenvalues not converged
     ethr =  2.77E-08,  avg # of iterations = 14.2

     total cpu time spent up to now is     3343.7 secs

     total energy              =   -1411.33898408 Ry
     estimated scf accuracy    <       0.00011496 Ry

     total magnetization       =     6.77 Bohr mag/cell
     absolute magnetization    =     7.27 Bohr mag/cell

     iteration #182     ecut=    30.00 Ry     beta= 0.70
     Davidson diagonalization with overlap

---- Real-time Memory Report at c_bands before calling an iterative solver
            96 MiB given to the printing process from OS
             0 MiB allocation reported by mallinfo(arena+hblkhd)
          3676 MiB available memory on the node where the printing process lives
------------------
     ethr =  2.77E-08,  avg # of iterations =  7.6

     total cpu time spent up to now is     3357.1 secs

     total energy              =   -1411.33676380 Ry
     estimated scf accuracy    <       0.00021922 Ry

     total magnetization       =     6.16 Bohr mag/cell
     absolute magnetization    =     6.68 Bohr mag/cell

     iteration #183     ecut=    30.00 Ry     beta= 0.70
     Davidson diagonalization with overlap

---- Real-time Memory Report at c_bands before calling an iterative solver
            96 MiB given to the printing process from OS
             0 MiB allocation reported by mallinfo(arena+hblkhd)
          3676 MiB available memory on the node where the printing process lives
------------------
     ethr =  2.77E-08,  avg # of iterations =  9.0

     total cpu time spent up to now is     3372.0 secs

     total energy              =   -1411.33958969 Ry
     estimated scf accuracy    <       0.00006715 Ry

     total magnetization       =     7.03 Bohr mag/cell
     absolute magnetization    =     7.52 Bohr mag/cell

     iteration #184     ecut=    30.00 Ry     beta= 0.70
     Davidson diagonalization with overlap

---- Real-time Memory Report at c_bands before calling an iterative solver
            96 MiB given to the printing process from OS
             0 MiB allocation reported by mallinfo(arena+hblkhd)
          3676 MiB available memory on the node where the printing process lives
------------------
     ethr =  2.77E-08,  avg # of iterations =  4.5

     total cpu time spent up to now is     3380.9 secs

     total energy              =   -1411.33935718 Ry
     estimated scf accuracy    <       0.00007125 Ry

     total magnetization       =     6.89 Bohr mag/cell
     absolute magnetization    =     7.39 Bohr mag/cell

     iteration #185     ecut=    30.00 Ry     beta= 0.70
     Davidson diagonalization with overlap

---- Real-time Memory Report at c_bands before calling an iterative solver
            96 MiB given to the printing process from OS
             0 MiB allocation reported by mallinfo(arena+hblkhd)
          3676 MiB available memory on the node where the printing process lives
------------------
     ethr =  2.77E-08,  avg # of iterations =  5.1

     total cpu time spent up to now is     3390.9 secs

     total energy              =   -1411.33767332 Ry
     estimated scf accuracy    <       0.00004490 Ry

     total magnetization       =     7.10 Bohr mag/cell
     absolute magnetization    =     7.59 Bohr mag/cell

     iteration #186     ecut=    30.00 Ry     beta= 0.70
     Davidson diagonalization with overlap

---- Real-time Memory Report at c_bands before calling an iterative solver
            96 MiB given to the printing process from OS
             0 MiB allocation reported by mallinfo(arena+hblkhd)
          3676 MiB available memory on the node where the printing process lives
------------------
     ethr =  2.77E-08,  avg # of iterations =  8.7

     total cpu time spent up to now is     3406.0 secs

     total energy              =   -1411.34006267 Ry
     estimated scf accuracy    <       0.00021113 Ry

     total magnetization       =     6.28 Bohr mag/cell
     absolute magnetization    =     6.79 Bohr mag/cell

     iteration #187     ecut=    30.00 Ry     beta= 0.70
     Davidson diagonalization with overlap

---- Real-time Memory Report at c_bands before calling an iterative solver
            96 MiB given to the printing process from OS
             0 MiB allocation reported by mallinfo(arena+hblkhd)
          3671 MiB available memory on the node where the printing process lives
------------------
     ethr =  2.77E-08,  avg # of iterations =  6.1

     total cpu time spent up to now is     3418.8 secs

     total energy              =   -1411.32922259 Ry
     estimated scf accuracy    <       0.00039198 Ry

     total magnetization       =     5.83 Bohr mag/cell
     absolute magnetization    =     6.36 Bohr mag/cell

     iteration #188     ecut=    30.00 Ry     beta= 0.70
     Davidson diagonalization with overlap

---- Real-time Memory Report at c_bands before calling an iterative solver
            96 MiB given to the printing process from OS
             0 MiB allocation reported by mallinfo(arena+hblkhd)
          3671 MiB available memory on the node where the printing process lives
------------------
     ethr =  2.77E-08,  avg # of iterations = 10.1

     total cpu time spent up to now is     3436.5 secs

     total energy              =   -1411.33936096 Ry
     estimated scf accuracy    <       0.00010032 Ry

     total magnetization       =     7.45 Bohr mag/cell
     absolute magnetization    =     7.93 Bohr mag/cell

     iteration #189     ecut=    30.00 Ry     beta= 0.70
     Davidson diagonalization with overlap

---- Real-time Memory Report at c_bands before calling an iterative solver
            96 MiB given to the printing process from OS
             0 MiB allocation reported by mallinfo(arena+hblkhd)
          3671 MiB available memory on the node where the printing process lives
------------------
     ethr =  2.77E-08,  avg # of iterations =  4.2

     total cpu time spent up to now is     3445.0 secs

     total energy              =   -1411.33823192 Ry
     estimated scf accuracy    <       0.00004468 Ry

     total magnetization       =     7.33 Bohr mag/cell
     absolute magnetization    =     7.82 Bohr mag/cell

     iteration #190     ecut=    30.00 Ry     beta= 0.70
     Davidson diagonalization with overlap

---- Real-time Memory Report at c_bands before calling an iterative solver
            96 MiB given to the printing process from OS
             0 MiB allocation reported by mallinfo(arena+hblkhd)
          3671 MiB available memory on the node where the printing process lives
------------------
     ethr =  2.77E-08,  avg # of iterations =  6.2

     total cpu time spent up to now is     3458.1 secs

     total energy              =   -1411.33901554 Ry
     estimated scf accuracy    <       0.00011102 Ry

     total magnetization       =     7.81 Bohr mag/cell
     absolute magnetization    =     8.28 Bohr mag/cell

     iteration #191     ecut=    30.00 Ry     beta= 0.70
     Davidson diagonalization with overlap

---- Real-time Memory Report at c_bands before calling an iterative solver
            96 MiB given to the printing process from OS
             0 MiB allocation reported by mallinfo(arena+hblkhd)
          3668 MiB available memory on the node where the printing process lives
------------------
     ethr =  2.77E-08,  avg # of iterations =  5.0

     total cpu time spent up to now is     3467.9 secs

     total energy              =   -1411.33849478 Ry
     estimated scf accuracy    <       0.00005524 Ry

     total magnetization       =     7.95 Bohr mag/cell
     absolute magnetization    =     8.41 Bohr mag/cell

     iteration #192     ecut=    30.00 Ry     beta= 0.70
     Davidson diagonalization with overlap

---- Real-time Memory Report at c_bands before calling an iterative solver
            96 MiB given to the printing process from OS
             0 MiB allocation reported by mallinfo(arena+hblkhd)
          3668 MiB available memory on the node where the printing process lives
------------------
     ethr =  2.77E-08,  avg # of iterations =  6.3

     total cpu time spent up to now is     3480.2 secs

     total energy              =   -1411.33847936 Ry
     estimated scf accuracy    <       0.00008820 Ry

     total magnetization       =     8.24 Bohr mag/cell
     absolute magnetization    =     8.70 Bohr mag/cell

     iteration #193     ecut=    30.00 Ry     beta= 0.70
     Davidson diagonalization with overlap

---- Real-time Memory Report at c_bands before calling an iterative solver
            96 MiB given to the printing process from OS
             0 MiB allocation reported by mallinfo(arena+hblkhd)
          3668 MiB available memory on the node where the printing process lives
------------------
     ethr =  2.77E-08,  avg # of iterations =  5.4

     total cpu time spent up to now is     3490.6 secs

     total energy              =   -1411.33811631 Ry
     estimated scf accuracy    <       0.00013999 Ry

     total magnetization       =     8.44 Bohr mag/cell
     absolute magnetization    =     8.90 Bohr mag/cell

     iteration #194     ecut=    30.00 Ry     beta= 0.70
     Davidson diagonalization with overlap

---- Real-time Memory Report at c_bands before calling an iterative solver
            96 MiB given to the printing process from OS
             0 MiB allocation reported by mallinfo(arena+hblkhd)
          3668 MiB available memory on the node where the printing process lives
------------------
     ethr =  2.77E-08,  avg # of iterations =  6.1

     total cpu time spent up to now is     3501.9 secs

     total energy              =   -1411.33822525 Ry
     estimated scf accuracy    <       0.00019807 Ry

     total magnetization       =     8.67 Bohr mag/cell
     absolute magnetization    =     9.12 Bohr mag/cell

     iteration #195     ecut=    30.00 Ry     beta= 0.70
     Davidson diagonalization with overlap

---- Real-time Memory Report at c_bands before calling an iterative solver
            96 MiB given to the printing process from OS
             0 MiB allocation reported by mallinfo(arena+hblkhd)
          3668 MiB available memory on the node where the printing process lives
------------------
     ethr =  2.77E-08,  avg # of iterations =  3.6

     total cpu time spent up to now is     3510.4 secs

     total energy              =   -1411.33336676 Ry
     estimated scf accuracy    <       0.00025625 Ry

     total magnetization       =     8.74 Bohr mag/cell
     absolute magnetization    =     9.19 Bohr mag/cell

     iteration #196     ecut=    30.00 Ry     beta= 0.70
     Davidson diagonalization with overlap

---- Real-time Memory Report at c_bands before calling an iterative solver
            96 MiB given to the printing process from OS
             0 MiB allocation reported by mallinfo(arena+hblkhd)
          3668 MiB available memory on the node where the printing process lives
------------------
     ethr =  2.77E-08,  avg # of iterations =  9.7

     total cpu time spent up to now is     3527.7 secs

     total energy              =   -1411.33602539 Ry
     estimated scf accuracy    <       0.00018749 Ry

     total magnetization       =     7.59 Bohr mag/cell
     absolute magnetization    =     8.07 Bohr mag/cell

     iteration #197     ecut=    30.00 Ry     beta= 0.70
     Davidson diagonalization with overlap

---- Real-time Memory Report at c_bands before calling an iterative solver
            96 MiB given to the printing process from OS
             0 MiB allocation reported by mallinfo(arena+hblkhd)
          3663 MiB available memory on the node where the printing process lives
------------------
     ethr =  2.77E-08,  avg # of iterations =  9.9

     total cpu time spent up to now is     3544.6 secs

     total energy              =   -1411.33818607 Ry
     estimated scf accuracy    <       0.00015972 Ry

     total magnetization       =     6.59 Bohr mag/cell
     absolute magnetization    =     7.10 Bohr mag/cell

     iteration #198     ecut=    30.00 Ry     beta= 0.70
     Davidson diagonalization with overlap

---- Real-time Memory Report at c_bands before calling an iterative solver
            96 MiB given to the printing process from OS
             0 MiB allocation reported by mallinfo(arena+hblkhd)
          3634 MiB available memory on the node where the printing process lives
------------------
     ethr =  2.77E-08,  avg # of iterations =  8.8

     total cpu time spent up to now is     3562.7 secs

     total energy              =   -1411.30864978 Ry
     estimated scf accuracy    <       0.00048824 Ry

     total magnetization       =     5.71 Bohr mag/cell
     absolute magnetization    =     6.24 Bohr mag/cell

     iteration #199     ecut=    30.00 Ry     beta= 0.70
     Davidson diagonalization with overlap

---- Real-time Memory Report at c_bands before calling an iterative solver
            96 MiB given to the printing process from OS
             0 MiB allocation reported by mallinfo(arena+hblkhd)
          3628 MiB available memory on the node where the printing process lives
------------------
     ethr =  2.77E-08,  avg # of iterations = 12.1

     total cpu time spent up to now is     3586.4 secs

     total energy              =   -1411.33722242 Ry
     estimated scf accuracy    <       0.00012810 Ry

     total magnetization       =     8.38 Bohr mag/cell
     absolute magnetization    =     8.84 Bohr mag/cell

     iteration #200     ecut=    30.00 Ry     beta= 0.70
     Davidson diagonalization with overlap

---- Real-time Memory Report at c_bands before calling an iterative solver
            96 MiB given to the printing process from OS
             0 MiB allocation reported by mallinfo(arena+hblkhd)
          3613 MiB available memory on the node where the printing process lives
------------------
     ethr =  2.77E-08,  avg # of iterations =  6.8

     total cpu time spent up to now is     3601.3 secs

     total energy              =   -1411.33756624 Ry
     estimated scf accuracy    <       0.00029688 Ry

     total magnetization       =     8.80 Bohr mag/cell
     absolute magnetization    =     9.25 Bohr mag/cell

     End of self-consistent calculation

     convergence NOT achieved after 200 iterations: stopping

     Writing config to output data dir ./temp/mns.save/ :
     XML data file, charge density

     init_run     :      3.56s CPU      3.70s WALL (       1 calls)
     electrons    :   3455.03s CPU   3559.05s WALL (       5 calls)
     update_pot   :      2.44s CPU      2.47s WALL (       4 calls)
     forces       :      7.19s CPU      7.37s WALL (       4 calls)
     stress       :     23.87s CPU     24.08s WALL (       4 calls)

     Called by init_run:
     wfcinit      :      2.15s CPU      2.23s WALL (       1 calls)
     wfcinit:atom :      0.01s CPU      0.01s WALL (      46 calls)
     wfcinit:wfcr :      2.02s CPU      2.10s WALL (      46 calls)
     potinit      :      0.69s CPU      0.72s WALL (       1 calls)
     hinit0       :      0.53s CPU      0.54s WALL (       1 calls)

     Called by electrons:
     c_bands      :   2898.85s CPU   2987.00s WALL (     317 calls)
     sum_band     :    309.52s CPU    321.51s WALL (     317 calls)
     v_of_rho     :      6.80s CPU      6.97s WALL (     321 calls)
     v_h          :      0.26s CPU      0.27s WALL (     321 calls)
     v_xc         :      6.72s CPU      6.88s WALL (     329 calls)
     newd         :     55.69s CPU     56.88s WALL (     321 calls)
     PAW_pot      :    186.68s CPU    188.78s WALL (     325 calls)
     mix_rho      :      2.51s CPU      2.56s WALL (     317 calls)

     Called by c_bands:
     init_us_2    :     26.90s CPU     27.51s WALL (   29762 calls)
     cegterg      :   2844.70s CPU   2931.48s WALL (   14583 calls)

     Called by sum_band:
     sum_band:wei :      0.29s CPU      0.30s WALL (     317 calls)
     sum_band:loo :    220.44s CPU    231.19s WALL (     317 calls)
     sum_band:buf :      5.43s CPU      5.51s WALL (   14582 calls)
     sum_band:ini :     12.85s CPU     13.05s WALL (   14582 calls)
     sum_band:cal :     94.37s CPU     97.83s WALL (   14766 calls)
     sum_band:bec :      3.43s CPU      3.46s WALL (   14766 calls)
     addusdens    :     87.70s CPU     88.90s WALL (     317 calls)
                                        0.00s GPU  (     317 calls)
     addusd:skk   :      0.17s CPU      0.17s WALL (    1585 calls)
                                        0.00s GPU  (    1585 calls)

     Called by *egterg:
     cdiaghg      :    345.43s CPU    348.72s WALL (   98542 calls)
     cegterg:over :    242.84s CPU    247.07s WALL (   84189 calls)
     cegterg:upda :    140.06s CPU    140.97s WALL (   84189 calls)
     cegterg:last :    351.43s CPU    353.72s WALL (   45437 calls)
     h_psi        :   1388.38s CPU   1459.69s WALL (   98818 calls)
     s_psi        :    287.22s CPU    290.02s WALL (   98818 calls)
     g_psi        :      2.91s CPU      2.94s WALL (   84189 calls)

     Called by h_psi:
     h_psi:calbec :    366.31s CPU    382.49s WALL (   98818 calls)
     vloc_psi     :    707.72s CPU    759.07s WALL (   98818 calls)
     add_vuspsi   :    303.83s CPU    307.55s WALL (   98818 calls)

     General routines
     calbec       :    466.82s CPU    486.71s WALL (  114504 calls)
     fft          :      2.84s CPU      2.95s WALL (    8181 calls)
     ffts         :      0.32s CPU      0.34s WALL (    1276 calls)
     fftw         :    729.05s CPU    782.43s WALL ( 5719538 calls)
     interpolate  :      0.51s CPU      0.54s WALL (     642 calls)
     davcio       :      0.01s CPU      1.09s WALL (      64 calls)

     Parallel routines

     PAW routines
     PAW_pot      :    186.68s CPU    188.78s WALL (     325 calls)

     PWSCF        :  58m17.04s CPU      1h 0m WALL


   This run was terminated on:  21:59:25  20Jan2025            

=------------------------------------------------------------------------------=
   JOB DONE.
=------------------------------------------------------------------------------=
