
     Program BANDS v.7.3.1 starts on 30Jan2025 at 13:35:40 

     This program is part of the open-source Quantum ESPRESSO suite
     for quantum simulation of materials; please cite
         "P. Giannozzi et al., J. Phys.:Condens. Matter 21 395502 (2009);
         "P. Giannozzi et al., J. Phys.:Condens. Matter 29 465901 (2017);
         "P. Giannozzi et al., J. Chem. Phys. 152 154105 (2020);
          URL http://www.quantum-espresso.org", 
     in publications or presentations arising from this work. More details at
     http://www.quantum-espresso.org/quote

     Parallel version (MPI), running on     1 processors

     MPI processes distributed on     1 nodes
     1286 MiB available memory on the printing compute node when the environment starts


     Reading xml data from directory:

     ./temp/mns.save/
     Message from routine  set_nelup_neldw :
     BEWARE: non-integer number of up and down electrons!
     file Mn.pbe-spn-kjpaw_psl.0.3.1.UPF: wavefunction(s)  3P 3D renormalized
     file S.pbe-n-kjpaw_psl.1.0.0.UPF: wavefunction(s)  3S 3P renormalized

     IMPORTANT: XC functional enforced from input :
     Exchange-correlation= PBE
                           (   1   4   3   4   0   0   0)
     Any further DFT definition will be discarded
     Please, verify this is what you really want


     G-vector sticks info
     --------------------
     sticks:   dense  smooth     PW     G-vecs:    dense   smooth      PW
     Sum         547     475    151                 8291     6855    1243

     Using Slab Decomposition


     Check: negative core charge=   -0.000107
     Reading collected, re-writing distributed wavefunctions
     high-symmetry point:  0.0000 0.0000 0.0000   x coordinate   0.0000
     high-symmetry point:  0.0000 0.7071 0.0000   x coordinate   0.7071
     high-symmetry point:  0.1768 0.7071 0.1768   x coordinate   0.9571
     high-symmetry point:  0.0000 0.0000 0.0000   x coordinate   1.7071
     high-symmetry point:  0.3536 0.3536 0.3536   x coordinate   2.3195
     high-symmetry point:  0.3536 0.7071 0.0000   x coordinate   2.8195
     high-symmetry point:  0.0000 0.7071 0.0000   x coordinate   3.1730
     high-symmetry point:  0.0000 0.0000 0.0000   x coordinate   3.8801
     high-symmetry point:  0.0000-0.7071 0.0000   x coordinate   4.5872
     high-symmetry point: -0.1768-0.7071-0.1768   x coordinate   4.8372
     high-symmetry point:  0.0000 0.0000 0.0000   x coordinate   5.5872
     high-symmetry point: -0.3536-0.3536-0.3536   x coordinate   6.1996
     high-symmetry point: -0.3536-0.7071 0.0000   x coordinate   6.6996
     high-symmetry point:  0.0000-0.7071 0.0000   x coordinate   7.0532

     Plottable bands (eV) written to file bands_ppd.dat.gnu
     Bands written to file bands_ppd.dat

 **************************************************************************

                    xk=(   0.00000,   0.00000,   0.00000  )

     point group T_d (-43m) 
     there are  5 classes
     the character table:

       E     8C3   3C2   6S4   6s_d 
A_1    1.00  1.00  1.00  1.00  1.00
A_2    1.00  1.00  1.00 -1.00 -1.00
E      2.00 -1.00  2.00  0.00  0.00
T_1    3.00  0.00 -1.00  1.00 -1.00
T_2    3.00  0.00 -1.00 -1.00  1.00

     the symmetry operations in each class and the name of the first element:

     E        1
                                                                 
     8C3      5    7    8    6   12    9   10   11
                                                                 
     3C2      2    3    4
                                                                 
     6S4     15   16   20   19   23   24
                                                                 
     6s_d    13   14   17   18   21   22
                                                                 

     Band symmetry, T_d (-43m)  point group:

     e(  1 -  1) =    -66.91923  eV     1   --> A_1  G_1  P_1  
     e(  2 -  4) =    -35.73415  eV     3   --> T_2  G_15 P_4  
     e(  5 -  5) =     -3.53444  eV     1   --> A_1  G_1  P_1  
     e(  6 -  8) =      7.10561  eV     3   --> T_2  G_15 P_4  
     e(  9 - 10) =     11.23484  eV     2   --> E    G_12 P_3  
     e( 11 - 13) =     15.64008  eV     3   --> T_2  G_15 P_4  
     e( 14 - 14) =     15.70272  eV     1   --> A_1  G_1  P_1  
     e( 15 - 17) =     19.72043  eV     3   --> T_2  G_15 P_4  
     e( 18 - 19) =     25.10585  eV     2   --> E    G_12 P_3  
     e( 20 - 20) =     27.65885  eV     1   --> A_1  G_1  P_1  
     e( 21 - 21) =     28.18741  eV     1   -->   ?

 **************************************************************************

 **************************************************************************

                    xk=(   0.00000,   0.02828,   0.00000  )

     point group C_2v (mm2) 
     there are  4 classes
     the character table:

       E     C2    s_v   s_v' 
A_1    1.00  1.00  1.00  1.00
A_2    1.00  1.00 -1.00 -1.00
B_1    1.00 -1.00  1.00 -1.00
B_2    1.00 -1.00 -1.00  1.00

     the symmetry operations in each class and the name of the first element:

     E        1
                                                                 
     C2       2
                                                                 
     s_v      4
                                                                 
     s_v'     3
                                                                 

     Band symmetry, C_2v (mm2)  point group:

     e(  1 -  1) =    -66.91924  eV     1   --> A_1  D_1  S_1  
     e(  2 -  4) =    -35.73434  eV     3   --> A_1  D_1  S_1  
     e(  2 -  4) =    -35.73434  eV     3   --> B_1  D_3  S_3  
     e(  2 -  4) =    -35.73434  eV     3   --> B_2  D_4  S_4  
     e(  5 -  5) =     -3.52886  eV     1   --> A_1  D_1  S_1  
     e(  6 -  6) =      7.09464  eV     1   --> A_1  D_1  S_1  
     e(  7 -  8) =      7.10697  eV     2   --> B_1  D_3  S_3  
     e(  7 -  8) =      7.10697  eV     2   --> B_2  D_4  S_4  
     e(  9 -  9) =     11.22822  eV     1   --> A_1  D_1  S_1  
     e( 10 - 10) =     11.23736  eV     1   --> A_2  D_2  S_2  
     e( 11 - 11) =     15.53622  eV     1   --> A_1  D_1  S_1  
     e( 12 - 13) =     15.61858  eV     2   --> B_1  D_3  S_3  
     e( 12 - 13) =     15.61858  eV     2   --> B_2  D_4  S_4  
     e( 14 - 14) =     15.82290  eV     1   --> A_1  D_1  S_1  
     e( 15 - 15) =     19.70143  eV     1   --> A_1  D_1  S_1  
     e( 16 - 17) =     19.74205  eV     2   --> B_1  D_3  S_3  
     e( 16 - 17) =     19.74205  eV     2   --> B_2  D_4  S_4  
     e( 18 - 18) =     25.03449  eV     1   --> A_1  D_1  S_1  
     e( 19 - 19) =     25.10452  eV     1   --> A_2  D_2  S_2  
     e( 20 - 20) =     27.57504  eV     1   --> A_1  D_1  S_1  
     e( 21 - 21) =     28.20806  eV     1   -->   ?

 **************************************************************************

 **************************************************************************

                    xk=(   0.00000,   0.05657,   0.00000  )

     Band symmetry, C_2v (mm2)  point group:

     e(  1 -  1) =    -66.91922  eV     1   --> A_1  D_1  S_1  
     e(  2 -  2) =    -35.73467  eV     1   -->   ?
     e(  3 -  4) =    -35.73440  eV     2   -->   ?
     e(  5 -  5) =     -3.51162  eV     1   --> A_1  D_1  S_1  
     e(  6 -  6) =      7.06285  eV     1   --> A_1  D_1  S_1  
     e(  7 -  8) =      7.11181  eV     2   --> B_1  D_3  S_3  
     e(  7 -  8) =      7.11181  eV     2   --> B_2  D_4  S_4  
     e(  9 -  9) =     11.20876  eV     1   --> A_1  D_1  S_1  
     e( 10 - 10) =     11.24508  eV     1   --> A_2  D_2  S_2  
     e( 11 - 11) =     15.42460  eV     1   --> A_1  D_1  S_1  
     e( 12 - 13) =     15.55982  eV     2   --> B_1  D_3  S_3  
     e( 12 - 13) =     15.55982  eV     2   --> B_2  D_4  S_4  
     e( 14 - 14) =     15.98706  eV     1   --> A_1  D_1  S_1  
     e( 15 - 15) =     19.64636  eV     1   --> A_1  D_1  S_1  
     e( 16 - 17) =     19.80595  eV     2   --> B_1  D_3  S_3  
     e( 16 - 17) =     19.80595  eV     2   --> B_2  D_4  S_4  
     e( 18 - 18) =     24.83359  eV     1   --> A_1  D_1  S_1  
     e( 19 - 19) =     25.10094  eV     1   --> A_2  D_2  S_2  
     e( 20 - 20) =     27.49428  eV     1   --> A_1  D_1  S_1  
     e( 21 - 21) =     28.27113  eV     1   -->   ?

 **************************************************************************

 **************************************************************************

                    xk=(   0.00000,   0.08485,   0.00000  )

     Band symmetry, C_2v (mm2)  point group:

     e(  1 -  1) =    -66.91917  eV     1   --> A_1  D_1  S_1  
     e(  2 -  2) =    -35.73520  eV     1   --> A_1  D_1  S_1  
     e(  3 -  4) =    -35.73461  eV     2   --> B_1  D_3  S_3  
     e(  3 -  4) =    -35.73461  eV     2   --> B_2  D_4  S_4  
     e(  5 -  5) =     -3.48306  eV     1   --> A_1  D_1  S_1  
     e(  6 -  6) =      7.01113  eV     1   --> A_1  D_1  S_1  
     e(  7 -  8) =      7.11991  eV     2   --> B_1  D_3  S_3  
     e(  7 -  8) =      7.11991  eV     2   --> B_2  D_4  S_4  
     e(  9 -  9) =     11.17687  eV     1   --> A_1  D_1  S_1  
     e( 10 - 10) =     11.25786  eV     1   --> A_2  D_2  S_2  
     e( 11 - 11) =     15.32729  eV     1   --> A_1  D_1  S_1  
     e( 12 - 13) =     15.46579  eV     2   --> B_1  D_3  S_3  
     e( 12 - 13) =     15.46579  eV     2   --> B_2  D_4  S_4  
     e( 14 - 14) =     16.16706  eV     1   --> A_1  D_1  S_1  
     e( 15 - 15) =     19.56059  eV     1   --> A_1  D_1  S_1  
     e( 16 - 17) =     19.90924  eV     2   --> B_1  D_3  S_3  
     e( 16 - 17) =     19.90924  eV     2   --> B_2  D_4  S_4  
     e( 18 - 18) =     24.53755  eV     1   --> A_1  D_1  S_1  
     e( 19 - 19) =     25.09501  eV     1   --> A_2  D_2  S_2  
     e( 20 - 20) =     27.50566  eV     1   --> A_1  D_1  S_1  
     e( 21 - 21) =     28.37549  eV     1   -->   ?

 **************************************************************************

 **************************************************************************

                    xk=(   0.00000,   0.11314,   0.00000  )

     Band symmetry, C_2v (mm2)  point group:

     e(  1 -  1) =    -66.91910  eV     1   --> A_1  D_1  S_1  
     e(  2 -  2) =    -35.73594  eV     1   --> A_1  D_1  S_1  
     e(  3 -  4) =    -35.73488  eV     2   --> B_1  D_3  S_3  
     e(  3 -  4) =    -35.73488  eV     2   --> B_2  D_4  S_4  
     e(  5 -  5) =     -3.44343  eV     1   --> A_1  D_1  S_1  
     e(  6 -  6) =      6.94128  eV     1   --> A_1  D_1  S_1  
     e(  7 -  8) =      7.13129  eV     2   --> B_1  D_3  S_3  
     e(  7 -  8) =      7.13129  eV     2   --> B_2  D_4  S_4  
     e(  9 -  9) =     11.13336  eV     1   --> A_1  D_1  S_1  
     e( 10 - 10) =     11.27554  eV     1   --> A_2  D_2  S_2  
     e( 11 - 11) =     15.24213  eV     1   --> A_1  D_1  S_1  
     e( 12 - 13) =     15.34127  eV     2   --> B_1  D_3  S_3  
     e( 12 - 13) =     15.34127  eV     2   --> B_2  D_4  S_4  
     e( 14 - 14) =     16.35722  eV     1   --> A_1  D_1  S_1  
     e( 15 - 15) =     19.45285  eV     1   --> A_1  D_1  S_1  
     e( 16 - 17) =     20.04799  eV     2   --> B_1  D_3  S_3  
     e( 16 - 17) =     20.04799  eV     2   --> B_2  D_4  S_4  
     e( 18 - 18) =     24.18841  eV     1   --> A_1  D_1  S_1  
     e( 19 - 19) =     25.08679  eV     1   --> A_2  D_2  S_2  
     e( 20 - 20) =     27.60200  eV     1   --> A_1  D_1  S_1  
     e( 21 - 21) =     28.52001  eV     1   -->   ?

 **************************************************************************

 **************************************************************************

                    xk=(   0.00000,   0.14142,   0.00000  )

     Band symmetry, C_2v (mm2)  point group:

     e(  1 -  1) =    -66.91905  eV     1   --> A_1  D_1  S_1  
     e(  2 -  2) =    -35.73701  eV     1   --> A_1  D_1  S_1  
     e(  3 -  4) =    -35.73525  eV     2   --> B_1  D_3  S_3  
     e(  3 -  4) =    -35.73525  eV     2   --> B_2  D_4  S_4  
     e(  5 -  5) =     -3.39319  eV     1   --> A_1  D_1  S_1  
     e(  6 -  6) =      6.85550  eV     1   --> A_1  D_1  S_1  
     e(  7 -  8) =      7.14591  eV     2   --> B_1  D_3  S_3  
     e(  7 -  8) =      7.14591  eV     2   --> B_2  D_4  S_4  
     e(  9 -  9) =     11.07767  eV     1   --> A_1  D_1  S_1  
     e( 10 - 10) =     11.29786  eV     1   --> A_2  D_2  S_2  
     e( 11 - 11) =     15.16485  eV     1   --> A_1  D_1  S_1  
     e( 12 - 13) =     15.19114  eV     2   --> B_1  D_3  S_3  
     e( 12 - 13) =     15.19114  eV     2   --> B_2  D_4  S_4  
     e( 14 - 14) =     16.54972  eV     1   --> A_1  D_1  S_1  
     e( 15 - 15) =     19.33498  eV     1   --> A_1  D_1  S_1  
     e( 16 - 17) =     20.21797  eV     2   --> B_1  D_3  S_3  
     e( 16 - 17) =     20.21797  eV     2   --> B_2  D_4  S_4  
     e( 18 - 18) =     23.82058  eV     1   --> A_1  D_1  S_1  
     e( 19 - 19) =     25.07633  eV     1   --> A_2  D_2  S_2  
     e( 20 - 20) =     27.76057  eV     1   --> A_1  D_1  S_1  
     e( 21 - 21) =     28.70293  eV     1   -->   ?

 **************************************************************************

 **************************************************************************

                    xk=(   0.00000,   0.16971,   0.00000  )

     Band symmetry, C_2v (mm2)  point group:

     e(  1 -  1) =    -66.91895  eV     1   --> A_1  D_1  S_1  
     e(  2 -  2) =    -35.73812  eV     1   --> A_1  D_1  S_1  
     e(  3 -  4) =    -35.73566  eV     2   --> B_1  D_3  S_3  
     e(  3 -  4) =    -35.73566  eV     2   --> B_2  D_4  S_4  
     e(  5 -  5) =     -3.33270  eV     1   --> A_1  D_1  S_1  
     e(  6 -  6) =      6.75639  eV     1   --> A_1  D_1  S_1  
     e(  7 -  8) =      7.16394  eV     2   --> B_1  D_3  S_3  
     e(  7 -  8) =      7.16394  eV     2   --> B_2  D_4  S_4  
     e(  9 -  9) =     11.01422  eV     1   --> A_1  D_1  S_1  
     e( 10 - 10) =     11.32458  eV     1   --> A_2  D_2  S_2  
     e( 11 - 12) =     15.02150  eV     2   --> B_1  D_3  S_3  
     e( 11 - 12) =     15.02150  eV     2   --> B_2  D_4  S_4  
     e( 13 - 13) =     15.09092  eV     1   --> A_1  D_1  S_1  
     e( 14 - 14) =     16.73333  eV     1   --> A_1  D_1  S_1  
     e( 15 - 15) =     19.22230  eV     1   --> A_1  D_1  S_1  
     e( 16 - 17) =     20.41534  eV     2   --> B_1  D_3  S_3  
     e( 16 - 17) =     20.41534  eV     2   --> B_2  D_4  S_4  
     e( 18 - 18) =     23.46250  eV     1   --> A_1  D_1  S_1  
     e( 19 - 19) =     25.06376  eV     1   --> A_2  D_2  S_2  
     e( 20 - 20) =     27.96300  eV     1   --> A_1  D_1  S_1  
     e( 21 - 21) =     28.92259  eV     1   -->   ?

 **************************************************************************

 **************************************************************************

                    xk=(   0.00000,   0.19799,   0.00000  )

     Band symmetry, C_2v (mm2)  point group:

     e(  1 -  1) =    -66.91880  eV     1   --> A_1  D_1  S_1  
     e(  2 -  2) =    -35.73921  eV     1   --> A_1  D_1  S_1  
     e(  3 -  4) =    -35.73611  eV     2   --> B_1  D_3  S_3  
     e(  3 -  4) =    -35.73611  eV     2   --> B_2  D_4  S_4  
     e(  5 -  5) =     -3.26254  eV     1   --> A_1  D_1  S_1  
     e(  6 -  6) =      6.64663  eV     1   --> A_1  D_1  S_1  
     e(  7 -  8) =      7.18543  eV     2   --> B_1  D_3  S_3  
     e(  7 -  8) =      7.18543  eV     2   --> B_2  D_4  S_4  
     e(  9 -  9) =     10.94484  eV     1   --> A_1  D_1  S_1  
     e( 10 - 10) =     11.35536  eV     1   --> A_2  D_2  S_2  
     e( 11 - 12) =     14.83738  eV     2   --> B_1  D_3  S_3  
     e( 11 - 12) =     14.83738  eV     2   --> B_2  D_4  S_4  
     e( 13 - 13) =     15.01458  eV     1   --> A_1  D_1  S_1  
     e( 14 - 14) =     16.89332  eV     1   --> A_1  D_1  S_1  
     e( 15 - 15) =     19.13280  eV     1   --> A_1  D_1  S_1  
     e( 16 - 17) =     20.63689  eV     2   --> B_1  D_3  S_3  
     e( 16 - 17) =     20.63689  eV     2   --> B_2  D_4  S_4  
     e( 18 - 18) =     23.13305  eV     1   --> A_1  D_1  S_1  
     e( 19 - 19) =     25.04921  eV     1   --> A_2  D_2  S_2  
     e( 20 - 20) =     28.19418  eV     1   --> A_1  D_1  S_1  
     e( 21 - 21) =     29.17672  eV     1   -->   ?

 **************************************************************************

 **************************************************************************

                    xk=(   0.00000,   0.22627,   0.00000  )

     Band symmetry, C_2v (mm2)  point group:

     e(  1 -  1) =    -66.91868  eV     1   --> A_1  D_1  S_1  
     e(  2 -  2) =    -35.74063  eV     1   --> A_1  D_1  S_1  
     e(  3 -  4) =    -35.73664  eV     2   --> B_1  D_3  S_3  
     e(  3 -  4) =    -35.73664  eV     2   --> B_2  D_4  S_4  
     e(  5 -  5) =     -3.18360  eV     1   --> A_1  D_1  S_1  
     e(  6 -  6) =      6.52889  eV     1   --> A_1  D_1  S_1  
     e(  7 -  8) =      7.21012  eV     2   --> B_1  D_3  S_3  
     e(  7 -  8) =      7.21012  eV     2   --> B_2  D_4  S_4  
     e(  9 -  9) =     10.86752  eV     1   --> A_1  D_1  S_1  
     e( 10 - 10) =     11.38974  eV     1   --> A_2  D_2  S_2  
     e( 11 - 12) =     14.64168  eV     2   --> B_1  D_3  S_3  
     e( 11 - 12) =     14.64168  eV     2   --> B_2  D_4  S_4  
     e( 13 - 13) =     14.92773  eV     1   --> A_1  D_1  S_1  
     e( 14 - 14) =     17.01379  eV     1   --> A_1  D_1  S_1  
     e( 15 - 15) =     19.08422  eV     1   --> A_1  D_1  S_1  
     e( 16 - 17) =     20.87981  eV     2   --> B_1  D_3  S_3  
     e( 16 - 17) =     20.87981  eV     2   --> B_2  D_4  S_4  
     e( 18 - 18) =     22.84472  eV     1   --> A_1  D_1  S_1  
     e( 19 - 19) =     25.03277  eV     1   --> A_2  D_2  S_2  
     e( 20 - 20) =     28.44143  eV     1   --> A_1  D_1  S_1  
     e( 21 - 21) =     29.46159  eV     1   -->   ?

 **************************************************************************

 **************************************************************************

                    xk=(   0.00000,   0.25456,   0.00000  )

     Band symmetry, C_2v (mm2)  point group:

     e(  1 -  1) =    -66.91853  eV     1   --> A_1  D_1  S_1  
     e(  2 -  2) =    -35.74208  eV     1   --> A_1  D_1  S_1  
     e(  3 -  4) =    -35.73718  eV     2   --> B_1  D_3  S_3  
     e(  3 -  4) =    -35.73718  eV     2   --> B_2  D_4  S_4  
     e(  5 -  5) =     -3.09658  eV     1   --> A_1  D_1  S_1  
     e(  6 -  6) =      6.40577  eV     1   --> A_1  D_1  S_1  
     e(  7 -  8) =      7.23826  eV     2   --> B_1  D_3  S_3  
     e(  7 -  8) =      7.23826  eV     2   --> B_2  D_4  S_4  
     e(  9 -  9) =     10.78653  eV     1   --> A_1  D_1  S_1  
     e( 10 - 10) =     11.42733  eV     1   --> A_2  D_2  S_2  
     e( 11 - 12) =     14.43970  eV     2   --> B_1  D_3  S_3  
     e( 11 - 12) =     14.43970  eV     2   --> B_2  D_4  S_4  
     e( 13 - 13) =     14.82403  eV     1   --> A_1  D_1  S_1  
     e( 14 - 14) =     17.08475  eV     1   --> A_1  D_1  S_1  
     e( 15 - 15) =     19.08656  eV     1   --> A_1  D_1  S_1  
     e( 16 - 17) =     21.14228  eV     2   --> B_1  D_3  S_3  
     e( 16 - 17) =     21.14228  eV     2   --> B_2  D_4  S_4  
     e( 18 - 18) =     22.61290  eV     1   --> A_1  D_1  S_1  
     e( 19 - 19) =     25.01470  eV     1   --> A_2  D_2  S_2  
     e( 20 - 20) =     28.69757  eV     1   --> A_1  D_1  S_1  
     e( 21 - 21) =     29.77410  eV     1   -->   ?

 **************************************************************************

 **************************************************************************

                    xk=(   0.00000,   0.28284,   0.00000  )

     Band symmetry, C_2v (mm2)  point group:

     e(  1 -  1) =    -66.91839  eV     1   --> A_1  D_1  S_1  
     e(  2 -  2) =    -35.74371  eV     1   --> A_1  D_1  S_1  
     e(  3 -  4) =    -35.73778  eV     2   --> B_1  D_3  S_3  
     e(  3 -  4) =    -35.73778  eV     2   --> B_2  D_4  S_4  
     e(  5 -  5) =     -3.00262  eV     1   --> A_1  D_1  S_1  
     e(  6 -  6) =      6.27967  eV     1   --> A_1  D_1  S_1  
     e(  7 -  8) =      7.26942  eV     2   --> B_1  D_3  S_3  
     e(  7 -  8) =      7.26942  eV     2   --> B_2  D_4  S_4  
     e(  9 -  9) =     10.70302  eV     1   --> A_1  D_1  S_1  
     e( 10 - 10) =     11.46751  eV     1   --> A_2  D_2  S_2  
     e( 11 - 12) =     14.23270  eV     2   --> B_1  D_3  S_3  
     e( 11 - 12) =     14.23270  eV     2   --> B_2  D_4  S_4  
     e( 13 - 13) =     14.69565  eV     1   --> A_1  D_1  S_1  
     e( 14 - 14) =     17.10954  eV     1   --> A_1  D_1  S_1  
     e( 15 - 15) =     19.13293  eV     1   --> A_1  D_1  S_1  
     e( 16 - 17) =     21.42259  eV     2   --> B_1  D_3  S_3  
     e( 16 - 17) =     21.42259  eV     2   --> B_2  D_4  S_4  
     e( 18 - 18) =     22.45050  eV     1   --> A_1  D_1  S_1  
     e( 19 - 19) =     24.99510  eV     1   --> A_2  D_2  S_2  
     e( 20 - 20) =     28.95695  eV     1   --> A_1  D_1  S_1  
     e( 21 - 21) =     30.10815  eV     1   -->   ?

 **************************************************************************

 **************************************************************************

                    xk=(   0.00000,   0.31113,   0.00000  )

     Band symmetry, C_2v (mm2)  point group:

     e(  1 -  1) =    -66.91824  eV     1   --> A_1  D_1  S_1  
     e(  2 -  2) =    -35.74540  eV     1   --> A_1  D_1  S_1  
     e(  3 -  4) =    -35.73841  eV     2   --> B_1  D_3  S_3  
     e(  3 -  4) =    -35.73841  eV     2   --> B_2  D_4  S_4  
     e(  5 -  5) =     -2.90277  eV     1   --> A_1  D_1  S_1  
     e(  6 -  6) =      6.15280  eV     1   --> A_1  D_1  S_1  
     e(  7 -  8) =      7.30363  eV     2   --> B_1  D_3  S_3  
     e(  7 -  8) =      7.30363  eV     2   --> B_2  D_4  S_4  
     e(  9 -  9) =     10.61932  eV     1   --> A_1  D_1  S_1  
     e( 10 - 10) =     11.50976  eV     1   --> A_2  D_2  S_2  
     e( 11 - 12) =     14.02453  eV     2   --> B_1  D_3  S_3  
     e( 11 - 12) =     14.02453  eV     2   --> B_2  D_4  S_4  
     e( 13 - 13) =     14.53811  eV     1   --> A_1  D_1  S_1  
     e( 14 - 14) =     17.10421  eV     1   --> A_1  D_1  S_1  
     e( 15 - 15) =     19.20052  eV     1   --> A_1  D_1  S_1  
     e( 16 - 17) =     21.71968  eV     2   --> B_1  D_3  S_3  
     e( 16 - 17) =     21.71968  eV     2   --> B_2  D_4  S_4  
     e( 18 - 18) =     22.37135  eV     1   --> A_1  D_1  S_1  
     e( 19 - 19) =     24.97425  eV     1   --> A_2  D_2  S_2  
     e( 20 - 20) =     29.21640  eV     1   --> A_1  D_1  S_1  
     e( 21 - 21) =     30.45640  eV     1   -->   ?

 **************************************************************************

 **************************************************************************

                    xk=(   0.00000,   0.33941,   0.00000  )

     Band symmetry, C_2v (mm2)  point group:

     e(  1 -  1) =    -66.91805  eV     1   --> A_1  D_1  S_1  
     e(  2 -  2) =    -35.74702  eV     1   --> A_1  D_1  S_1  
     e(  3 -  4) =    -35.73895  eV     2   --> B_1  D_3  S_3  
     e(  3 -  4) =    -35.73895  eV     2   --> B_2  D_4  S_4  
     e(  5 -  5) =     -2.79820  eV     1   --> A_1  D_1  S_1  
     e(  6 -  6) =      6.02730  eV     1   --> A_1  D_1  S_1  
     e(  7 -  8) =      7.34089  eV     2   --> B_1  D_3  S_3  
     e(  7 -  8) =      7.34089  eV     2   --> B_2  D_4  S_4  
     e(  9 -  9) =     10.53749  eV     1   --> A_1  D_1  S_1  
     e( 10 - 10) =     11.55474  eV     1   --> A_2  D_2  S_2  
     e( 11 - 12) =     13.81921  eV     2   --> B_1  D_3  S_3  
     e( 11 - 12) =     13.81921  eV     2   --> B_2  D_4  S_4  
     e( 13 - 13) =     14.35026  eV     1   --> A_1  D_1  S_1  
     e( 14 - 14) =     17.08822  eV     1   --> A_1  D_1  S_1  
     e( 15 - 15) =     19.26224  eV     1   --> A_1  D_1  S_1  
     e( 16 - 17) =     22.03286  eV     2   --> B_1  D_3  S_3  
     e( 16 - 17) =     22.03286  eV     2   --> B_2  D_4  S_4  
     e( 18 - 18) =     22.38640  eV     1   --> A_1  D_1  S_1  
     e( 19 - 19) =     24.95301  eV     1   --> A_2  D_2  S_2  
     e( 20 - 20) =     29.47431  eV     1   --> A_1  D_1  S_1  
     e( 21 - 21) =     30.80708  eV     1   -->   ?

 **************************************************************************

 **************************************************************************

                    xk=(   0.00000,   0.36770,   0.00000  )

     Band symmetry, C_2v (mm2)  point group:

     e(  1 -  1) =    -66.91789  eV     1   --> A_1  D_1  S_1  
     e(  2 -  2) =    -35.74870  eV     1   --> A_1  D_1  S_1  
     e(  3 -  4) =    -35.73959  eV     2   --> B_1  D_3  S_3  
     e(  3 -  4) =    -35.73959  eV     2   --> B_2  D_4  S_4  
     e(  5 -  5) =     -2.69047  eV     1   --> A_1  D_1  S_1  
     e(  6 -  6) =      5.90465  eV     1   --> A_1  D_1  S_1  
     e(  7 -  8) =      7.38040  eV     2   --> B_1  D_3  S_3  
     e(  7 -  8) =      7.38040  eV     2   --> B_2  D_4  S_4  
     e(  9 -  9) =     10.45947  eV     1   --> A_1  D_1  S_1  
     e( 10 - 10) =     11.59916  eV     1   --> A_2  D_2  S_2  
     e( 11 - 12) =     13.61612  eV     2   --> B_1  D_3  S_3  
     e( 11 - 12) =     13.61612  eV     2   --> B_2  D_4  S_4  
     e( 13 - 13) =     14.13329  eV     1   --> A_1  D_1  S_1  
     e( 14 - 14) =     17.07610  eV     1   --> A_1  D_1  S_1  
     e( 15 - 15) =     19.29601  eV     1   --> A_1  D_1  S_1  
     e( 16 - 17) =     22.36099  eV     2   --> B_1  D_3  S_3  
     e( 16 - 17) =     22.36099  eV     2   --> B_2  D_4  S_4  
     e( 18 - 18) =     22.49821  eV     1   --> A_1  D_1  S_1  
     e( 19 - 19) =     24.93045  eV     1   --> A_2  D_2  S_2  
     e( 20 - 20) =     29.72991  eV     1   --> A_1  D_1  S_1  
     e( 21 - 21) =     31.13571  eV     1   -->   ?

 **************************************************************************

 **************************************************************************

                    xk=(   0.00000,   0.39598,   0.00000  )

     Band symmetry, C_2v (mm2)  point group:

     e(  1 -  1) =    -66.91775  eV     1   --> A_1  D_1  S_1  
     e(  2 -  2) =    -35.75046  eV     1   --> A_1  D_1  S_1  
     e(  3 -  4) =    -35.74025  eV     2   --> B_1  D_3  S_3  
     e(  3 -  4) =    -35.74025  eV     2   --> B_2  D_4  S_4  
     e(  5 -  5) =     -2.58118  eV     1   --> A_1  D_1  S_1  
     e(  6 -  6) =      5.78655  eV     1   --> A_1  D_1  S_1  
     e(  7 -  8) =      7.42182  eV     2   --> B_1  D_3  S_3  
     e(  7 -  8) =      7.42182  eV     2   --> B_2  D_4  S_4  
     e(  9 -  9) =     10.38621  eV     1   --> A_1  D_1  S_1  
     e( 10 - 10) =     11.64367  eV     1   --> A_2  D_2  S_2  
     e( 11 - 12) =     13.41798  eV     2   --> B_1  D_3  S_3  
     e( 11 - 12) =     13.41798  eV     2   --> B_2  D_4  S_4  
     e( 13 - 13) =     13.89197  eV     1   --> A_1  D_1  S_1  
     e( 14 - 14) =     17.07562  eV     1   --> A_1  D_1  S_1  
     e( 15 - 15) =     19.29527  eV     1   --> A_1  D_1  S_1  
     e( 16 - 16) =     22.69892  eV     1   -->   ?
     e( 17 - 18) =     22.70346  eV     2   -->   ?
     e( 19 - 19) =     24.90753  eV     1   --> A_2  D_2  S_2  
     e( 20 - 20) =     29.98271  eV     1   --> A_1  D_1  S_1  
     e( 21 - 21) =     31.40056  eV     1   -->   ?

 **************************************************************************

 **************************************************************************

                    xk=(   0.00000,   0.42426,   0.00000  )

     Band symmetry, C_2v (mm2)  point group:

     e(  1 -  1) =    -66.91763  eV     1   --> A_1  D_1  S_1  
     e(  2 -  2) =    -35.75214  eV     1   --> A_1  D_1  S_1  
     e(  3 -  4) =    -35.74096  eV     2   --> B_1  D_3  S_3  
     e(  3 -  4) =    -35.74096  eV     2   --> B_2  D_4  S_4  
     e(  5 -  5) =     -2.47192  eV     1   --> A_1  D_1  S_1  
     e(  6 -  6) =      5.67424  eV     1   --> A_1  D_1  S_1  
     e(  7 -  8) =      7.46474  eV     2   --> B_1  D_3  S_3  
     e(  7 -  8) =      7.46474  eV     2   --> B_2  D_4  S_4  
     e(  9 -  9) =     10.32001  eV     1   --> A_1  D_1  S_1  
     e( 10 - 10) =     11.68584  eV     1   --> A_2  D_2  S_2  
     e( 11 - 12) =     13.22786  eV     2   --> B_1  D_3  S_3  
     e( 11 - 12) =     13.22786  eV     2   --> B_2  D_4  S_4  
     e( 13 - 13) =     13.63484  eV     1   --> A_1  D_1  S_1  
     e( 14 - 14) =     17.08918  eV     1   --> A_1  D_1  S_1  
     e( 15 - 15) =     19.26259  eV     1   --> A_1  D_1  S_1  
     e( 16 - 16) =     22.97377  eV     1   --> A_1  D_1  S_1  
     e( 17 - 18) =     23.05984  eV     2   --> B_1  D_3  S_3  
     e( 17 - 18) =     23.05984  eV     2   --> B_2  D_4  S_4  
     e( 19 - 19) =     24.88397  eV     1   --> A_2  D_2  S_2  
     e( 20 - 20) =     30.23235  eV     1   --> A_1  D_1  S_1  
     e( 21 - 21) =     31.53435  eV     1   -->   ?

 **************************************************************************

 **************************************************************************

                    xk=(   0.00000,   0.45255,   0.00000  )

     Band symmetry, C_2v (mm2)  point group:

     e(  1 -  1) =    -66.91750  eV     1   --> A_1  D_1  S_1  
     e(  2 -  2) =    -35.75381  eV     1   --> A_1  D_1  S_1  
     e(  3 -  4) =    -35.74157  eV     2   --> B_1  D_3  S_3  
     e(  3 -  4) =    -35.74157  eV     2   --> B_2  D_4  S_4  
     e(  5 -  5) =     -2.36449  eV     1   --> A_1  D_1  S_1  
     e(  6 -  6) =      5.56919  eV     1   --> A_1  D_1  S_1  
     e(  7 -  8) =      7.50846  eV     2   --> B_1  D_3  S_3  
     e(  7 -  8) =      7.50846  eV     2   --> B_2  D_4  S_4  
     e(  9 -  9) =     10.26197  eV     1   --> A_1  D_1  S_1  
     e( 10 - 10) =     11.72834  eV     1   --> A_2  D_2  S_2  
     e( 11 - 12) =     13.04746  eV     2   --> B_1  D_3  S_3  
     e( 11 - 12) =     13.04746  eV     2   --> B_2  D_4  S_4  
     e( 13 - 13) =     13.36890  eV     1   --> A_1  D_1  S_1  
     e( 14 - 14) =     17.11604  eV     1   --> A_1  D_1  S_1  
     e( 15 - 15) =     19.20818  eV     1   --> A_1  D_1  S_1  
     e( 16 - 16) =     23.30350  eV     1   --> A_1  D_1  S_1  
     e( 17 - 18) =     23.42939  eV     2   --> B_1  D_3  S_3  
     e( 17 - 18) =     23.42939  eV     2   --> B_2  D_4  S_4  
     e( 19 - 19) =     24.86158  eV     1   --> A_2  D_2  S_2  
     e( 20 - 20) =     30.47871  eV     1   --> A_1  D_1  S_1  
     e( 21 - 21) =     31.47296  eV     1   -->   ?

 **************************************************************************

 **************************************************************************

                    xk=(   0.00000,   0.48083,   0.00000  )

     Band symmetry, C_2v (mm2)  point group:

     e(  1 -  1) =    -66.91737  eV     1   --> A_1  D_1  S_1  
     e(  2 -  2) =    -35.75532  eV     1   --> A_1  D_1  S_1  
     e(  3 -  4) =    -35.74214  eV     2   --> B_1  D_3  S_3  
     e(  3 -  4) =    -35.74214  eV     2   --> B_2  D_4  S_4  
     e(  5 -  5) =     -2.26081  eV     1   --> A_1  D_1  S_1  
     e(  6 -  6) =      5.47236  eV     1   --> A_1  D_1  S_1  
     e(  7 -  8) =      7.55215  eV     2   --> B_1  D_3  S_3  
     e(  7 -  8) =      7.55215  eV     2   --> B_2  D_4  S_4  
     e(  9 -  9) =     10.21395  eV     1   --> A_1  D_1  S_1  
     e( 10 - 10) =     11.76879  eV     1   --> A_2  D_2  S_2  
     e( 11 - 12) =     12.87904  eV     2   --> B_1  D_3  S_3  
     e( 11 - 12) =     12.87904  eV     2   --> B_2  D_4  S_4  
     e( 13 - 13) =     13.10377  eV     1   --> A_1  D_1  S_1  
     e( 14 - 14) =     17.15380  eV     1   --> A_1  D_1  S_1  
     e( 15 - 15) =     19.14013  eV     1   --> A_1  D_1  S_1  
     e( 16 - 16) =     23.67045  eV     1   --> A_1  D_1  S_1  
     e( 17 - 18) =     23.81151  eV     2   --> B_1  D_3  S_3  
     e( 17 - 18) =     23.81151  eV     2   --> B_2  D_4  S_4  
     e( 19 - 19) =     24.84004  eV     1   --> A_2  D_2  S_2  
     e( 20 - 20) =     30.71985  eV     1   --> A_1  D_1  S_1  
     e( 21 - 21) =     31.22378  eV     1   -->   ?

 **************************************************************************

 **************************************************************************

                    xk=(   0.00000,   0.50912,   0.00000  )

     Band symmetry, C_2v (mm2)  point group:

     e(  1 -  1) =    -66.91724  eV     1   --> A_1  D_1  S_1  
     e(  2 -  2) =    -35.75669  eV     1   --> A_1  D_1  S_1  
     e(  3 -  4) =    -35.74266  eV     2   --> B_1  D_3  S_3  
     e(  3 -  4) =    -35.74266  eV     2   --> B_2  D_4  S_4  
     e(  5 -  5) =     -2.16289  eV     1   --> A_1  D_1  S_1  
     e(  6 -  6) =      5.38466  eV     1   --> A_1  D_1  S_1  
     e(  7 -  8) =      7.59483  eV     2   --> B_1  D_3  S_3  
     e(  7 -  8) =      7.59483  eV     2   --> B_2  D_4  S_4  
     e(  9 -  9) =     10.17634  eV     1   --> A_1  D_1  S_1  
     e( 10 - 10) =     11.80651  eV     1   --> A_2  D_2  S_2  
     e( 11 - 12) =     12.72426  eV     2   --> B_1  D_3  S_3  
     e( 11 - 12) =     12.72426  eV     2   --> B_2  D_4  S_4  
     e( 13 - 13) =     12.84622  eV     1   --> A_1  D_1  S_1  
     e( 14 - 14) =     17.19941  eV     1   --> A_1  D_1  S_1  
     e( 15 - 15) =     19.06550  eV     1   --> A_1  D_1  S_1  
     e( 16 - 16) =     24.05777  eV     1   --> A_1  D_1  S_1  
     e( 17 - 18) =     24.20523  eV     2   --> B_1  D_3  S_3  
     e( 17 - 18) =     24.20523  eV     2   --> B_2  D_4  S_4  
     e( 19 - 19) =     24.81974  eV     1   --> A_2  D_2  S_2  
     e( 20 - 21) =     30.85186  eV     2   --> B_1  D_3  S_3  
     e( 20 - 21) =     30.85186  eV     2   --> B_2  D_4  S_4  

 **************************************************************************

 **************************************************************************

                    xk=(   0.00000,   0.53740,   0.00000  )

     Band symmetry, C_2v (mm2)  point group:

     e(  1 -  1) =    -66.91711  eV     1   --> A_1  D_1  S_1  
     e(  2 -  2) =    -35.75790  eV     1   --> A_1  D_1  S_1  
     e(  3 -  4) =    -35.74307  eV     2   --> B_1  D_3  S_3  
     e(  3 -  4) =    -35.74307  eV     2   --> B_2  D_4  S_4  
     e(  5 -  5) =     -2.07269  eV     1   --> A_1  D_1  S_1  
     e(  6 -  6) =      5.30707  eV     1   --> A_1  D_1  S_1  
     e(  7 -  8) =      7.63544  eV     2   --> B_1  D_3  S_3  
     e(  7 -  8) =      7.63544  eV     2   --> B_2  D_4  S_4  
     e(  9 -  9) =     10.14980  eV     1   --> A_1  D_1  S_1  
     e( 10 - 10) =     11.84095  eV     1   --> A_2  D_2  S_2  
     e( 11 - 12) =     12.58554  eV     2   --> B_1  D_3  S_3  
     e( 11 - 12) =     12.58554  eV     2   --> B_2  D_4  S_4  
     e( 13 - 13) =     12.60342  eV     1   --> A_1  D_1  S_1  
     e( 14 - 14) =     17.25063  eV     1   --> A_1  D_1  S_1  
     e( 15 - 15) =     18.99062  eV     1   --> A_1  D_1  S_1  
     e( 16 - 16) =     24.45041  eV     1   --> A_1  D_1  S_1  
     e( 17 - 18) =     24.60945  eV     2   --> B_1  D_3  S_3  
     e( 17 - 18) =     24.60945  eV     2   --> B_2  D_4  S_4  
     e( 19 - 19) =     24.80112  eV     1   --> A_2  D_2  S_2  
     e( 20 - 21) =     30.41624  eV     2   --> B_1  D_3  S_3  
     e( 20 - 21) =     30.41624  eV     2   --> B_2  D_4  S_4  

 **************************************************************************

 **************************************************************************

                    xk=(   0.00000,   0.56569,   0.00000  )

     Band symmetry, C_2v (mm2)  point group:

     e(  1 -  1) =    -66.91702  eV     1   --> A_1  D_1  S_1  
     e(  2 -  2) =    -35.75901  eV     1   --> A_1  D_1  S_1  
     e(  3 -  4) =    -35.74350  eV     2   --> B_1  D_3  S_3  
     e(  3 -  4) =    -35.74350  eV     2   --> B_2  D_4  S_4  
     e(  5 -  5) =     -1.99229  eV     1   --> A_1  D_1  S_1  
     e(  6 -  6) =      5.23996  eV     1   --> A_1  D_1  S_1  
     e(  7 -  8) =      7.67264  eV     2   --> B_1  D_3  S_3  
     e(  7 -  8) =      7.67264  eV     2   --> B_2  D_4  S_4  
     e(  9 -  9) =     10.13320  eV     1   --> A_1  D_1  S_1  
     e( 10 - 10) =     11.87104  eV     1   --> A_2  D_2  S_2  
     e( 11 - 11) =     12.38098  eV     1   --> A_1  D_1  S_1  
     e( 12 - 13) =     12.46327  eV     2   --> B_1  D_3  S_3  
     e( 12 - 13) =     12.46327  eV     2   --> B_2  D_4  S_4  
     e( 14 - 14) =     17.30219  eV     1   --> A_1  D_1  S_1  
     e( 15 - 15) =     18.91789  eV     1   --> A_1  D_1  S_1  
     e( 16 - 16) =     24.78453  eV     1   --> A_2  D_2  S_2  
     e( 17 - 17) =     24.83210  eV     1   --> A_1  D_1  S_1  
     e( 18 - 19) =     25.02214  eV     2   --> B_1  D_3  S_3  
     e( 18 - 19) =     25.02214  eV     2   --> B_2  D_4  S_4  
     e( 20 - 21) =     29.95125  eV     2   --> B_1  D_3  S_3  
     e( 20 - 21) =     29.95125  eV     2   --> B_2  D_4  S_4  

 **************************************************************************

 **************************************************************************

                    xk=(   0.00000,   0.59397,   0.00000  )

     Band symmetry, C_2v (mm2)  point group:

     e(  1 -  1) =    -66.91692  eV     1   --> A_1  D_1  S_1  
     e(  2 -  2) =    -35.75997  eV     1   --> A_1  D_1  S_1  
     e(  3 -  4) =    -35.74378  eV     2   --> B_1  D_3  S_3  
     e(  3 -  4) =    -35.74378  eV     2   --> B_2  D_4  S_4  
     e(  5 -  5) =     -1.92351  eV     1   --> A_1  D_1  S_1  
     e(  6 -  6) =      5.18436  eV     1   --> A_1  D_1  S_1  
     e(  7 -  8) =      7.70538  eV     2   --> B_1  D_3  S_3  
     e(  7 -  8) =      7.70538  eV     2   --> B_2  D_4  S_4  
     e(  9 -  9) =     10.12608  eV     1   --> A_1  D_1  S_1  
     e( 10 - 10) =     11.89727  eV     1   --> A_2  D_2  S_2  
     e( 11 - 11) =     12.18522  eV     1   --> A_1  D_1  S_1  
     e( 12 - 13) =     12.36085  eV     2   --> B_1  D_3  S_3  
     e( 12 - 13) =     12.36085  eV     2   --> B_2  D_4  S_4  
     e( 14 - 14) =     17.35262  eV     1   --> A_1  D_1  S_1  
     e( 15 - 15) =     18.85246  eV     1   --> A_1  D_1  S_1  
     e( 16 - 16) =     24.77039  eV     1   --> A_2  D_2  S_2  
     e( 17 - 17) =     25.18682  eV     1   --> A_1  D_1  S_1  
     e( 18 - 19) =     25.44045  eV     2   --> B_1  D_3  S_3  
     e( 18 - 19) =     25.44045  eV     2   --> B_2  D_4  S_4  
     e( 20 - 21) =     29.47836  eV     2   --> B_1  D_3  S_3  
     e( 20 - 21) =     29.47836  eV     2   --> B_2  D_4  S_4  

 **************************************************************************

 **************************************************************************

                    xk=(   0.00000,   0.62225,   0.00000  )

     Band symmetry, C_2v (mm2)  point group:

     e(  1 -  1) =    -66.91686  eV     1   --> A_1  D_1  S_1  
     e(  2 -  2) =    -35.76068  eV     1   --> A_1  D_1  S_1  
     e(  3 -  4) =    -35.74409  eV     2   --> B_1  D_3  S_3  
     e(  3 -  4) =    -35.74409  eV     2   --> B_2  D_4  S_4  
     e(  5 -  5) =     -1.86804  eV     1   --> A_1  D_1  S_1  
     e(  6 -  6) =      5.14030  eV     1   --> A_1  D_1  S_1  
     e(  7 -  8) =      7.73231  eV     2   --> B_1  D_3  S_3  
     e(  7 -  8) =      7.73231  eV     2   --> B_2  D_4  S_4  
     e(  9 -  9) =     10.12570  eV     1   --> A_1  D_1  S_1  
     e( 10 - 10) =     11.91720  eV     1   --> A_2  D_2  S_2  
     e( 11 - 11) =     12.02450  eV     1   --> A_1  D_1  S_1  
     e( 12 - 13) =     12.27827  eV     2   --> B_1  D_3  S_3  
     e( 12 - 13) =     12.27827  eV     2   --> B_2  D_4  S_4  
     e( 14 - 14) =     17.39619  eV     1   --> A_1  D_1  S_1  
     e( 15 - 15) =     18.79610  eV     1   --> A_1  D_1  S_1  
     e( 16 - 16) =     24.75897  eV     1   --> A_2  D_2  S_2  
     e( 17 - 17) =     25.49557  eV     1   --> A_1  D_1  S_1  
     e( 18 - 19) =     25.85809  eV     2   --> B_1  D_3  S_3  
     e( 18 - 19) =     25.85809  eV     2   --> B_2  D_4  S_4  
     e( 20 - 21) =     29.01184  eV     2   --> B_1  D_3  S_3  
     e( 20 - 21) =     29.01184  eV     2   --> B_2  D_4  S_4  

 **************************************************************************

 **************************************************************************

                    xk=(   0.00000,   0.65054,   0.00000  )

     Band symmetry, C_2v (mm2)  point group:

     e(  1 -  1) =    -66.91680  eV     1   --> A_1  D_1  S_1  
     e(  2 -  2) =    -35.76118  eV     1   --> A_1  D_1  S_1  
     e(  3 -  4) =    -35.74427  eV     2   --> B_1  D_3  S_3  
     e(  3 -  4) =    -35.74427  eV     2   --> B_2  D_4  S_4  
     e(  5 -  5) =     -1.82730  eV     1   --> A_1  D_1  S_1  
     e(  6 -  6) =      5.10867  eV     1   --> A_1  D_1  S_1  
     e(  7 -  8) =      7.75252  eV     2   --> B_1  D_3  S_3  
     e(  7 -  8) =      7.75252  eV     2   --> B_2  D_4  S_4  
     e(  9 -  9) =     10.12928  eV     1   --> A_1  D_1  S_1  
     e( 10 - 10) =     11.90309  eV     1   --> A_1  D_1  S_1  
     e( 11 - 11) =     11.93257  eV     1   --> A_2  D_2  S_2  
     e( 12 - 13) =     12.21891  eV     2   --> B_1  D_3  S_3  
     e( 12 - 13) =     12.21891  eV     2   --> B_2  D_4  S_4  
     e( 14 - 14) =     17.43093  eV     1   --> A_1  D_1  S_1  
     e( 15 - 15) =     18.75299  eV     1   --> A_1  D_1  S_1  
     e( 16 - 16) =     24.75066  eV     1   --> A_2  D_2  S_2  
     e( 17 - 17) =     25.73830  eV     1   --> A_1  D_1  S_1  
     e( 18 - 19) =     26.26077  eV     2   --> B_1  D_3  S_3  
     e( 18 - 19) =     26.26077  eV     2   --> B_2  D_4  S_4  
     e( 20 - 21) =     28.57212  eV     2   --> B_1  D_3  S_3  
     e( 20 - 21) =     28.57212  eV     2   --> B_2  D_4  S_4  

 **************************************************************************

 **************************************************************************

                    xk=(   0.00000,   0.67882,   0.00000  )

     Band symmetry, C_2v (mm2)  point group:

     e(  1 -  1) =    -66.91675  eV     1   --> A_1  D_1  S_1  
     e(  2 -  2) =    -35.76136  eV     1   --> A_1  D_1  S_1  
     e(  3 -  4) =    -35.74436  eV     2   --> B_1  D_3  S_3  
     e(  3 -  4) =    -35.74436  eV     2   --> B_2  D_4  S_4  
     e(  5 -  5) =     -1.80240  eV     1   --> A_1  D_1  S_1  
     e(  6 -  6) =      5.08956  eV     1   --> A_1  D_1  S_1  
     e(  7 -  8) =      7.76506  eV     2   --> B_1  D_3  S_3  
     e(  7 -  8) =      7.76506  eV     2   --> B_2  D_4  S_4  
     e(  9 -  9) =     10.13348  eV     1   --> A_1  D_1  S_1  
     e( 10 - 10) =     11.82911  eV     1   --> A_1  D_1  S_1  
     e( 11 - 11) =     11.94182  eV     1   --> A_2  D_2  S_2  
     e( 12 - 13) =     12.18366  eV     2   --> B_1  D_3  S_3  
     e( 12 - 13) =     12.18366  eV     2   --> B_2  D_4  S_4  
     e( 14 - 14) =     17.45351  eV     1   --> A_1  D_1  S_1  
     e( 15 - 15) =     18.72590  eV     1   --> A_1  D_1  S_1  
     e( 16 - 16) =     24.74556  eV     1   --> A_2  D_2  S_2  
     e( 17 - 17) =     25.89500  eV     1   --> A_1  D_1  S_1  
     e( 18 - 19) =     26.60534  eV     2   --> B_1  D_3  S_3  
     e( 18 - 19) =     26.60534  eV     2   --> B_2  D_4  S_4  
     e( 20 - 21) =     28.20504  eV     2   --> B_1  D_3  S_3  
     e( 20 - 21) =     28.20504  eV     2   --> B_2  D_4  S_4  

 **************************************************************************

 **************************************************************************

                    xk=(   0.00000,   0.70711,   0.00000  )

     point group D_2d (-42m)
     there are  5 classes
     the character table:

       E     2S4   C2    2C2'  2s_d 
A_1    1.00  1.00  1.00  1.00  1.00
A_2    1.00  1.00  1.00 -1.00 -1.00
B_1    1.00 -1.00  1.00  1.00 -1.00
B_2    1.00 -1.00  1.00 -1.00  1.00
E      2.00  0.00 -2.00  0.00  0.00

     the symmetry operations in each class and the name of the first element:

     E        1
                                                                 
     2S4      7    8
                                                                 
     C2       3
                                                                 
     2C2'     2    4
                                                                 
     2s_d     5    6
                                                                 

     Band symmetry, D_2d (-42m) point group:

     e(  1 -  1) =    -66.91674  eV     1   --> B_2  X_3  W_2  
     e(  2 -  2) =    -35.76147  eV     1   --> A_1  X_1  W_1  
     e(  3 -  4) =    -35.74440  eV     2   --> E    X_5  W_3  
     e(  5 -  5) =     -1.79403  eV     1   --> A_1  X_1  W_1  
     e(  6 -  6) =      5.08315  eV     1   --> B_2  X_3  W_2  
     e(  7 -  8) =      7.76927  eV     2   --> E    X_5  W_3  
     e(  9 -  9) =     10.13521  eV     1   --> A_1  X_1  W_1  
     e( 10 - 10) =     11.80329  eV     1   --> B_2  X_3  W_2  
     e( 11 - 11) =     11.94483  eV     1   --> A_2  X_4  W_2' 
     e( 12 - 13) =     12.17144  eV     2   --> E    X_5  W_3  
     e( 14 - 14) =     17.46127  eV     1   --> A_1  X_1  W_1  
     e( 15 - 15) =     18.71650  eV     1   --> B_2  X_3  W_2  
     e( 16 - 16) =     24.74384  eV     1   --> B_1  X_2  W_1' 
     e( 17 - 17) =     25.94903  eV     1   --> B_2  X_3  W_2  
     e( 18 - 19) =     26.76348  eV     2   --> E    X_5  W_3  
     e( 20 - 21) =     28.03898  eV     2   --> E    X_5  W_3  

 **************************************************************************

 **************************************************************************

                    xk=(   0.01768,   0.70711,   0.01768  )

     point group C_s (m)    
     there are  2 classes
     the character table:

       E     s    
A'     1.00  1.00
A''    1.00 -1.00

     the symmetry operations in each class and the name of the first element:

     E        1
                                                                 
     s        2
                                                                 

     Band symmetry, C_s (m)     point group:

     e(  1 -  1) =    -66.91674  eV     1   --> A'             
     e(  2 -  2) =    -35.76142  eV     1   --> A'             
     e(  3 -  4) =    -35.74446  eV     2   --> A'             
     e(  3 -  4) =    -35.74446  eV     2   --> A''            
     e(  5 -  5) =     -1.79400  eV     1   --> A'             
     e(  6 -  6) =      5.08919  eV     1   --> A'             
     e(  7 -  7) =      7.75780  eV     1   --> A'             
     e(  8 -  8) =      7.76836  eV     1   --> A''            
     e(  9 -  9) =     10.13398  eV     1   --> A'             
     e( 10 - 10) =     11.76825  eV     1   --> A'             
     e( 11 - 11) =     11.92446  eV     1   --> A''            
     e( 12 - 12) =     12.19531  eV     1   --> A''            
     e( 13 - 13) =     12.21153  eV     1   --> A'             
     e( 14 - 14) =     17.47231  eV     1   --> A'             
     e( 15 - 15) =     18.73083  eV     1   --> A'             
     e( 16 - 16) =     24.69422  eV     1   --> A''            
     e( 17 - 17) =     25.83735  eV     1   --> A'             
     e( 18 - 18) =     26.77379  eV     1   --> A''            
     e( 19 - 19) =     26.86529  eV     1   --> A'             
     e( 20 - 20) =     28.01162  eV     1   --> A'             
     e( 21 - 21) =     28.08196  eV     1   --> A''            

 **************************************************************************

 **************************************************************************

                    xk=(   0.03536,   0.70711,   0.03536  )

     Band symmetry, C_s (m)     point group:

     e(  1 -  1) =    -66.91674  eV     1   --> A'             
     e(  2 -  2) =    -35.76129  eV     1   --> A'             
     e(  3 -  3) =    -35.74472  eV     1   --> A'             
     e(  4 -  4) =    -35.74431  eV     1   --> A''            
     e(  5 -  5) =     -1.79394  eV     1   --> A'             
     e(  6 -  6) =      5.10717  eV     1   --> A'             
     e(  7 -  7) =      7.72336  eV     1   --> A'             
     e(  8 -  8) =      7.76562  eV     1   --> A''            
     e(  9 -  9) =     10.13014  eV     1   --> A'             
     e( 10 - 10) =     11.69472  eV     1   --> A'             
     e( 11 - 11) =     11.87782  eV     1   --> A''            
     e( 12 - 12) =     12.25198  eV     1   --> A''            
     e( 13 - 13) =     12.29994  eV     1   --> A'             
     e( 14 - 14) =     17.50345  eV     1   --> A'             
     e( 15 - 15) =     18.77433  eV     1   --> A'             
     e( 16 - 16) =     24.55759  eV     1   --> A''            
     e( 17 - 17) =     25.59375  eV     1   --> A'             
     e( 18 - 18) =     26.79181  eV     1   --> A''            
     e( 19 - 19) =     27.06833  eV     1   --> A'             
     e( 20 - 20) =     27.94426  eV     1   --> A'             
     e( 21 - 21) =     28.21150  eV     1   --> A''            

 **************************************************************************

 **************************************************************************

                    xk=(   0.05303,   0.70711,   0.05303  )

     Band symmetry, C_s (m)     point group:

     e(  1 -  1) =    -66.91676  eV     1   --> A'             
     e(  2 -  2) =    -35.76113  eV     1   --> A'             
     e(  3 -  3) =    -35.74510  eV     1   --> A'             
     e(  4 -  4) =    -35.74424  eV     1   --> A''            
     e(  5 -  5) =     -1.79402  eV     1   --> A'             
     e(  6 -  6) =      5.13695  eV     1   --> A'             
     e(  7 -  7) =      7.66644  eV     1   --> A'             
     e(  8 -  8) =      7.76105  eV     1   --> A''            
     e(  9 -  9) =     10.12440  eV     1   --> A'             
     e( 10 - 10) =     11.61872  eV     1   --> A'             
     e( 11 - 11) =     11.82161  eV     1   --> A''            
     e( 12 - 12) =     12.32415  eV     1   --> A''            
     e( 13 - 13) =     12.39994  eV     1   --> A'             
     e( 14 - 14) =     17.55155  eV     1   --> A'             
     e( 15 - 15) =     18.85038  eV     1   --> A'             
     e( 16 - 16) =     24.36037  eV     1   --> A''            
     e( 17 - 17) =     25.30655  eV     1   --> A'             
     e( 18 - 18) =     26.79382  eV     1   --> A''            
     e( 19 - 19) =     27.23075  eV     1   --> A'             
     e( 20 - 20) =     27.90134  eV     1   --> A'             
     e( 21 - 21) =     28.42437  eV     1   --> A''            

 **************************************************************************

 **************************************************************************

                    xk=(   0.07071,   0.70711,   0.07071  )

     Band symmetry, C_s (m)     point group:

     e(  1 -  1) =    -66.91676  eV     1   --> A'             
     e(  2 -  2) =    -35.76081  eV     1   --> A'             
     e(  3 -  3) =    -35.74557  eV     1   --> A'             
     e(  4 -  4) =    -35.74407  eV     1   --> A''            
     e(  5 -  5) =     -1.79448  eV     1   --> A'             
     e(  6 -  6) =      5.17835  eV     1   --> A'             
     e(  7 -  7) =      7.58825  eV     1   --> A'             
     e(  8 -  8) =      7.75489  eV     1   --> A''            
     e(  9 -  9) =     10.11730  eV     1   --> A'             
     e( 10 - 10) =     11.55759  eV     1   --> A'             
     e( 11 - 11) =     11.76358  eV     1   --> A''            
     e( 12 - 12) =     12.40655  eV     1   --> A''            
     e( 13 - 13) =     12.49657  eV     1   --> A'             
     e( 14 - 14) =     17.60988  eV     1   --> A'             
     e( 15 - 15) =     18.96199  eV     1   --> A'             
     e( 16 - 16) =     24.12786  eV     1   --> A''            
     e( 17 - 17) =     25.00606  eV     1   --> A'             
     e( 18 - 18) =     26.76645  eV     1   --> A''            
     e( 19 - 19) =     27.21731  eV     1   --> A'             
     e( 20 - 20) =     28.00440  eV     1   --> A'             
     e( 21 - 21) =     28.70948  eV     1   --> A''            

 **************************************************************************

 **************************************************************************

                    xk=(   0.08839,   0.70711,   0.08839  )

     Band symmetry, C_s (m)     point group:

     e(  1 -  1) =    -66.91674  eV     1   --> A'             
     e(  2 -  2) =    -35.76038  eV     1   --> A'             
     e(  3 -  3) =    -35.74606  eV     1   --> A'             
     e(  4 -  4) =    -35.74383  eV     1   --> A''            
     e(  5 -  5) =     -1.79565  eV     1   --> A'             
     e(  6 -  6) =      5.23096  eV     1   --> A'             
     e(  7 -  7) =      7.49040  eV     1   --> A'             
     e(  8 -  8) =      7.74723  eV     1   --> A''            
     e(  9 -  9) =     10.11096  eV     1   --> A'             
     e( 10 - 10) =     11.51755  eV     1   --> A'             
     e( 11 - 11) =     11.70552  eV     1   --> A''            
     e( 12 - 12) =     12.49659  eV     1   --> A''            
     e( 13 - 13) =     12.58195  eV     1   --> A'             
     e( 14 - 14) =     17.67330  eV     1   --> A'             
     e( 15 - 15) =     19.11246  eV     1   --> A'             
     e( 16 - 16) =     23.87816  eV     1   --> A''            
     e( 17 - 17) =     24.70328  eV     1   --> A'             
     e( 18 - 18) =     26.70765  eV     1   --> A''            
     e( 19 - 19) =     27.04593  eV     1   --> A'             
     e( 20 - 20) =     28.23961  eV     1   --> A'             
     e( 21 - 21) =     29.05036  eV     1   --> A''            

 **************************************************************************

 **************************************************************************

                    xk=(   0.10607,   0.70711,   0.10607  )

     Band symmetry, C_s (m)     point group:

     e(  1 -  1) =    -66.91677  eV     1   --> A'             
     e(  2 -  2) =    -35.76000  eV     1   --> A'             
     e(  3 -  3) =    -35.74671  eV     1   --> A'             
     e(  4 -  4) =    -35.74370  eV     1   --> A''            
     e(  5 -  5) =     -1.79801  eV     1   --> A'             
     e(  6 -  6) =      5.29381  eV     1   --> A'             
     e(  7 -  7) =      7.37521  eV     1   --> A'             
     e(  8 -  8) =      7.73804  eV     1   --> A''            
     e(  9 -  9) =     10.10715  eV     1   --> A'             
     e( 10 - 10) =     11.49940  eV     1   --> A'             
     e( 11 - 11) =     11.64595  eV     1   --> A''            
     e( 12 - 12) =     12.59121  eV     1   --> A''            
     e( 13 - 13) =     12.65092  eV     1   --> A'             
     e( 14 - 14) =     17.73522  eV     1   --> A'             
     e( 15 - 15) =     19.29996  eV     1   --> A'             
     e( 16 - 16) =     23.62281  eV     1   --> A''            
     e( 17 - 17) =     24.40252  eV     1   --> A'             
     e( 18 - 18) =     26.61973  eV     1   --> A''            
     e( 19 - 19) =     26.80819  eV     1   --> A'             
     e( 20 - 20) =     28.52300  eV     1   --> A'             
     e( 21 - 21) =     29.43162  eV     1   --> A''            

 **************************************************************************

 **************************************************************************

                    xk=(   0.12374,   0.70711,   0.12374  )

     Band symmetry, C_s (m)     point group:

     e(  1 -  1) =    -66.91677  eV     1   --> A'             
     e(  2 -  2) =    -35.75944  eV     1   --> A'             
     e(  3 -  3) =    -35.74738  eV     1   --> A'             
     e(  4 -  4) =    -35.74342  eV     1   --> A''            
     e(  5 -  5) =     -1.80203  eV     1   --> A'             
     e(  6 -  6) =      5.36658  eV     1   --> A'             
     e(  7 -  7) =      7.24612  eV     1   --> A'             
     e(  8 -  8) =      7.72771  eV     1   --> A''            
     e(  9 -  9) =     10.10935  eV     1   --> A'             
     e( 10 - 10) =     11.50429  eV     1   --> A'             
     e( 11 - 11) =     11.58788  eV     1   --> A''            
     e( 12 - 12) =     12.69298  eV     1   --> A''            
     e( 13 - 13) =     12.70397  eV     1   --> A'             
     e( 14 - 14) =     17.79488  eV     1   --> A'             
     e( 15 - 15) =     19.52174  eV     1   --> A'             
     e( 16 - 16) =     23.36962  eV     1   --> A''            
     e( 17 - 17) =     24.10891  eV     1   --> A'             
     e( 18 - 18) =     26.50733  eV     1   --> A''            
     e( 19 - 19) =     26.54659  eV     1   --> A'             
     e( 20 - 20) =     28.82261  eV     1   --> A'             
     e( 21 - 21) =     29.84308  eV     1   --> A''            

 **************************************************************************

 **************************************************************************

                    xk=(   0.14142,   0.70711,   0.14142  )

     Band symmetry, C_s (m)     point group:

     e(  1 -  1) =    -66.91680  eV     1   --> A'             
     e(  2 -  2) =    -35.75891  eV     1   --> A'             
     e(  3 -  3) =    -35.74811  eV     1   --> A'             
     e(  4 -  4) =    -35.74317  eV     1   --> A''            
     e(  5 -  5) =     -1.80835  eV     1   --> A'             
     e(  6 -  6) =      5.44813  eV     1   --> A'             
     e(  7 -  7) =      7.10673  eV     1   --> A'             
     e(  8 -  8) =      7.71620  eV     1   --> A''            
     e(  9 -  9) =     10.11975  eV     1   --> A'             
     e( 10 - 10) =     11.52835  eV     1   --> A'             
     e( 11 - 11) =     11.52958  eV     1   --> A''            
     e( 12 - 12) =     12.73935  eV     1   --> A'             
     e( 13 - 13) =     12.79948  eV     1   --> A''            
     e( 14 - 14) =     17.85043  eV     1   --> A'             
     e( 15 - 15) =     19.76889  eV     1   --> A'             
     e( 16 - 16) =     23.12315  eV     1   --> A''            
     e( 17 - 17) =     23.82426  eV     1   --> A'             
     e( 18 - 18) =     26.28102  eV     1   --> A'             
     e( 19 - 19) =     26.37267  eV     1   --> A''            
     e( 20 - 20) =     29.12670  eV     1   --> A'             
     e( 21 - 21) =     30.27584  eV     1   --> A''            

 **************************************************************************

 **************************************************************************

                    xk=(   0.15910,   0.70711,   0.15910  )

     Band symmetry, C_s (m)     point group:

     e(  1 -  1) =    -66.91681  eV     1   --> A'             
     e(  2 -  2) =    -35.75830  eV     1   --> A'             
     e(  3 -  3) =    -35.74880  eV     1   --> A'             
     e(  4 -  4) =    -35.74286  eV     1   --> A''            
     e(  5 -  5) =     -1.81755  eV     1   --> A'             
     e(  6 -  6) =      5.53756  eV     1   --> A'             
     e(  7 -  7) =      6.96148  eV     1   --> A'             
     e(  8 -  8) =      7.70376  eV     1   --> A''            
     e(  9 -  9) =     10.14108  eV     1   --> A'             
     e( 10 - 10) =     11.47222  eV     1   --> A''            
     e( 11 - 11) =     11.56998  eV     1   --> A'             
     e( 12 - 12) =     12.75923  eV     1   --> A'             
     e( 13 - 13) =     12.91167  eV     1   --> A''            
     e( 14 - 14) =     17.90394  eV     1   --> A'             
     e( 15 - 15) =     20.02961  eV     1   --> A'             
     e( 16 - 16) =     22.88675  eV     1   --> A''            
     e( 17 - 17) =     23.55209  eV     1   --> A'             
     e( 18 - 18) =     26.02671  eV     1   --> A'             
     e( 19 - 19) =     26.21906  eV     1   --> A''            
     e( 20 - 20) =     29.42912  eV     1   --> A'             
     e( 21 - 21) =     30.69460  eV     1   --> A'             

 **************************************************************************

 **************************************************************************

                    xk=(   0.17678,   0.70711,   0.17678  )

     Band symmetry, C_s (m)     point group:

     e(  1 -  1) =    -66.91682  eV     1   --> A'             
     e(  2 -  2) =    -35.75764  eV     1   --> A'             
     e(  3 -  3) =    -35.74941  eV     1   --> A'             
     e(  4 -  4) =    -35.74250  eV     1   --> A''            
     e(  5 -  5) =     -1.83032  eV     1   --> A'             
     e(  6 -  6) =      5.63350  eV     1   --> A'             
     e(  7 -  7) =      6.81473  eV     1   --> A'             
     e(  8 -  8) =      7.69055  eV     1   --> A''            
     e(  9 -  9) =     10.17516  eV     1   --> A'             
     e( 10 - 10) =     11.41583  eV     1   --> A''            
     e( 11 - 11) =     11.62570  eV     1   --> A'             
     e( 12 - 12) =     12.76510  eV     1   --> A'             
     e( 13 - 13) =     13.02924  eV     1   --> A''            
     e( 14 - 14) =     17.95666  eV     1   --> A'             
     e( 15 - 15) =     20.28777  eV     1   --> A'             
     e( 16 - 16) =     22.66255  eV     1   --> A''            
     e( 17 - 17) =     23.29474  eV     1   --> A'             
     e( 18 - 18) =     25.79800  eV     1   --> A'             
     e( 19 - 19) =     26.04902  eV     1   --> A''            
     e( 20 - 20) =     29.72020  eV     1   --> A'             
     e( 21 - 21) =     30.51438  eV     1   --> A'             

 **************************************************************************

 **************************************************************************

                    xk=(   0.17088,   0.68354,   0.17088  )

     Band symmetry, C_s (m)     point group:

     e(  1 -  1) =    -66.91683  eV     1   --> A'             
     e(  2 -  2) =    -35.75791  eV     1   --> A'             
     e(  3 -  3) =    -35.74913  eV     1   --> A'             
     e(  4 -  4) =    -35.74261  eV     1   --> A''            
     e(  5 -  5) =     -1.82954  eV     1   --> A'             
     e(  6 -  6) =      5.59872  eV     1   --> A'             
     e(  7 -  7) =      6.86726  eV     1   --> A'             
     e(  8 -  8) =      7.69255  eV     1   --> A''            
     e(  9 -  9) =     10.17081  eV     1   --> A'             
     e( 10 - 10) =     11.43845  eV     1   --> A''            
     e( 11 - 11) =     11.60171  eV     1   --> A'             
     e( 12 - 12) =     12.77766  eV     1   --> A'             
     e( 13 - 13) =     12.99014  eV     1   --> A''            
     e( 14 - 14) =     17.94060  eV     1   --> A'             
     e( 15 - 15) =     20.20059  eV     1   --> A'             
     e( 16 - 16) =     22.72290  eV     1   --> A''            
     e( 17 - 17) =     23.34267  eV     1   --> A'             
     e( 18 - 18) =     25.89938  eV     1   --> A'             
     e( 19 - 19) =     26.11467  eV     1   --> A''            
     e( 20 - 20) =     29.53107  eV     1   --> A'             
     e( 21 - 21) =     30.64461  eV     1   --> A'             

 **************************************************************************

 **************************************************************************

                    xk=(   0.16499,   0.65997,   0.16499  )

     Band symmetry, C_s (m)     point group:

     e(  1 -  1) =    -66.91684  eV     1   --> A'             
     e(  2 -  2) =    -35.75810  eV     1   --> A'             
     e(  3 -  3) =    -35.74869  eV     1   --> A'             
     e(  4 -  4) =    -35.74266  eV     1   --> A''            
     e(  5 -  5) =     -1.83747  eV     1   --> A'             
     e(  6 -  6) =      5.56310  eV     1   --> A'             
     e(  7 -  7) =      6.92461  eV     1   --> A'             
     e(  8 -  8) =      7.68963  eV     1   --> A''            
     e(  9 -  9) =     10.18454  eV     1   --> A'             
     e( 10 - 10) =     11.46906  eV     1   --> A''            
     e( 11 - 11) =     11.57501  eV     1   --> A'             
     e( 12 - 12) =     12.81462  eV     1   --> A'             
     e( 13 - 13) =     12.95460  eV     1   --> A''            
     e( 14 - 14) =     17.92743  eV     1   --> A'             
     e( 15 - 15) =     20.10935  eV     1   --> A'             
     e( 16 - 16) =     22.75994  eV     1   --> A''            
     e( 17 - 17) =     23.32057  eV     1   --> A'             
     e( 18 - 18) =     26.05176  eV     1   --> A'             
     e( 19 - 19) =     26.18700  eV     1   --> A''            
     e( 20 - 20) =     29.26132  eV     1   --> A'             
     e( 21 - 21) =     30.81315  eV     1   --> A'             

 **************************************************************************

 **************************************************************************

                    xk=(   0.15910,   0.63640,   0.15910  )

     Band symmetry, C_s (m)     point group:

     e(  1 -  1) =    -66.91687  eV     1   --> A'             
     e(  2 -  2) =    -35.75829  eV     1   --> A'             
     e(  3 -  3) =    -35.74813  eV     1   --> A'             
     e(  4 -  4) =    -35.74267  eV     1   --> A''            
     e(  5 -  5) =     -1.85460  eV     1   --> A'             
     e(  6 -  6) =      5.53039  eV     1   --> A'             
     e(  7 -  7) =      6.98289  eV     1   --> A'             
     e(  8 -  8) =      7.68178  eV     1   --> A''            
     e(  9 -  9) =     10.21400  eV     1   --> A'             
     e( 10 - 10) =     11.50546  eV     1   --> A''            
     e( 11 - 11) =     11.55093  eV     1   --> A'             
     e( 12 - 12) =     12.87286  eV     1   --> A'             
     e( 13 - 13) =     12.92381  eV     1   --> A''            
     e( 14 - 14) =     17.91627  eV     1   --> A'             
     e( 15 - 15) =     20.01841  eV     1   --> A'             
     e( 16 - 16) =     22.77556  eV     1   --> A''            
     e( 17 - 17) =     23.23730  eV     1   --> A'             
     e( 18 - 18) =     26.21818  eV     1   --> A'             
     e( 19 - 19) =     26.25310  eV     1   --> A''            
     e( 20 - 20) =     29.01090  eV     1   --> A'             
     e( 21 - 21) =     30.78631  eV     1   --> A''            

 **************************************************************************

 **************************************************************************

                    xk=(   0.15321,   0.61283,   0.15321  )

     Band symmetry, C_s (m)     point group:

     e(  1 -  1) =    -66.91689  eV     1   --> A'             
     e(  2 -  2) =    -35.75833  eV     1   --> A'             
     e(  3 -  3) =    -35.74747  eV     1   --> A'             
     e(  4 -  4) =    -35.74259  eV     1   --> A''            
     e(  5 -  5) =     -1.88121  eV     1   --> A'             
     e(  6 -  6) =      5.50372  eV     1   --> A'             
     e(  7 -  7) =      7.03930  eV     1   --> A'             
     e(  8 -  8) =      7.66934  eV     1   --> A''            
     e(  9 -  9) =     10.25564  eV     1   --> A'             
     e( 10 - 10) =     11.53761  eV     1   --> A'             
     e( 11 - 11) =     11.54609  eV     1   --> A''            
     e( 12 - 12) =     12.90085  eV     1   --> A''            
     e( 13 - 13) =     12.95010  eV     1   --> A'             
     e( 14 - 14) =     17.90686  eV     1   --> A'             
     e( 15 - 15) =     19.93101  eV     1   --> A'             
     e( 16 - 16) =     22.77250  eV     1   --> A''            
     e( 17 - 17) =     23.10815  eV     1   --> A'             
     e( 18 - 18) =     26.29964  eV     1   --> A''            
     e( 19 - 19) =     26.34052  eV     1   --> A'             
     e( 20 - 20) =     28.84582  eV     1   --> A'             
     e( 21 - 21) =     30.72608  eV     1   --> A''            

 **************************************************************************

 **************************************************************************

                    xk=(   0.14731,   0.58926,   0.14731  )

     Band symmetry, C_s (m)     point group:

     e(  1 -  1) =    -66.91693  eV     1   --> A'             
     e(  2 -  2) =    -35.75828  eV     1   --> A'             
     e(  3 -  3) =    -35.74676  eV     1   --> A'             
     e(  4 -  4) =    -35.74248  eV     1   --> A''            
     e(  5 -  5) =     -1.91740  eV     1   --> A'             
     e(  6 -  6) =      5.48526  eV     1   --> A'             
     e(  7 -  7) =      7.09176  eV     1   --> A'             
     e(  8 -  8) =      7.65270  eV     1   --> A''            
     e(  9 -  9) =     10.30388  eV     1   --> A'             
     e( 10 - 10) =     11.54234  eV     1   --> A'             
     e( 11 - 11) =     11.58728  eV     1   --> A''            
     e( 12 - 12) =     12.88850  eV     1   --> A''            
     e( 13 - 13) =     13.04253  eV     1   --> A'             
     e( 14 - 14) =     17.89745  eV     1   --> A'             
     e( 15 - 15) =     19.84957  eV     1   --> A'             
     e( 16 - 16) =     22.75332  eV     1   --> A''            
     e( 17 - 17) =     22.94593  eV     1   --> A'             
     e( 18 - 18) =     26.31397  eV     1   --> A''            
     e( 19 - 19) =     26.35547  eV     1   --> A'             
     e( 20 - 20) =     28.82318  eV     1   --> A'             
     e( 21 - 21) =     30.72599  eV     1   --> A''            

 **************************************************************************

 **************************************************************************

                    xk=(   0.14142,   0.56569,   0.14142  )

     Band symmetry, C_s (m)     point group:

     e(  1 -  1) =    -66.91700  eV     1   --> A'             
     e(  2 -  2) =    -35.75814  eV     1   --> A'             
     e(  3 -  3) =    -35.74605  eV     1   --> A'             
     e(  4 -  4) =    -35.74238  eV     1   --> A''            
     e(  5 -  5) =     -1.96302  eV     1   --> A'             
     e(  6 -  6) =      5.47665  eV     1   --> A'             
     e(  7 -  7) =      7.13896  eV     1   --> A'             
     e(  8 -  8) =      7.63220  eV     1   --> A''            
     e(  9 -  9) =     10.35231  eV     1   --> A'             
     e( 10 - 10) =     11.57259  eV     1   --> A'             
     e( 11 - 11) =     11.62512  eV     1   --> A''            
     e( 12 - 12) =     12.88938  eV     1   --> A''            
     e( 13 - 13) =     13.14786  eV     1   --> A'             
     e( 14 - 14) =     17.88691  eV     1   --> A'             
     e( 15 - 15) =     19.77610  eV     1   --> A'             
     e( 16 - 16) =     22.71987  eV     1   --> A''            
     e( 17 - 17) =     22.76056  eV     1   --> A'             
     e( 18 - 18) =     26.23581  eV     1   --> A'             
     e( 19 - 19) =     26.28788  eV     1   --> A''            
     e( 20 - 20) =     28.96043  eV     1   --> A'             
     e( 21 - 21) =     30.79421  eV     1   --> A''            

 **************************************************************************

 **************************************************************************

                    xk=(   0.13553,   0.54212,   0.13553  )

     Band symmetry, C_s (m)     point group:

     e(  1 -  1) =    -66.91706  eV     1   --> A'             
     e(  2 -  2) =    -35.75777  eV     1   --> A'             
     e(  3 -  3) =    -35.74526  eV     1   --> A'             
     e(  4 -  4) =    -35.74218  eV     1   --> A''            
     e(  5 -  5) =     -2.01766  eV     1   --> A'             
     e(  6 -  6) =      5.47920  eV     1   --> A'             
     e(  7 -  7) =      7.18031  eV     1   --> A'             
     e(  8 -  8) =      7.60855  eV     1   --> A''            
     e(  9 -  9) =     10.39619  eV     1   --> A'             
     e( 10 - 10) =     11.63527  eV     1   --> A'             
     e( 11 - 11) =     11.65670  eV     1   --> A''            
     e( 12 - 12) =     12.90832  eV     1   --> A''            
     e( 13 - 13) =     13.26552  eV     1   --> A'             
     e( 14 - 14) =     17.87545  eV     1   --> A'             
     e( 15 - 15) =     19.71296  eV     1   --> A'             
     e( 16 - 16) =     22.56023  eV     1   --> A'             
     e( 17 - 17) =     22.67391  eV     1   --> A''            
     e( 18 - 18) =     26.00825  eV     1   --> A'             
     e( 19 - 19) =     26.22050  eV     1   --> A''            
     e( 20 - 20) =     29.21690  eV     1   --> A'             
     e( 21 - 21) =     30.67396  eV     1   --> A'             

 **************************************************************************

 **************************************************************************

                    xk=(   0.12964,   0.51854,   0.12964  )

     Band symmetry, C_s (m)     point group:

     e(  1 -  1) =    -66.91713  eV     1   --> A'             
     e(  2 -  2) =    -35.75728  eV     1   --> A'             
     e(  3 -  3) =    -35.74448  eV     1   --> A'             
     e(  4 -  4) =    -35.74190  eV     1   --> A''            
     e(  5 -  5) =     -2.08071  eV     1   --> A'             
     e(  6 -  6) =      5.49350  eV     1   --> A'             
     e(  7 -  7) =      7.21535  eV     1   --> A'             
     e(  8 -  8) =      7.58226  eV     1   --> A''            
     e(  9 -  9) =     10.43203  eV     1   --> A'             
     e( 10 - 10) =     11.67832  eV     1   --> A''            
     e( 11 - 11) =     11.73212  eV     1   --> A'             
     e( 12 - 12) =     12.94778  eV     1   --> A''            
     e( 13 - 13) =     13.39250  eV     1   --> A'             
     e( 14 - 14) =     17.86195  eV     1   --> A'             
     e( 15 - 15) =     19.66086  eV     1   --> A'             
     e( 16 - 16) =     22.34978  eV     1   --> A'             
     e( 17 - 17) =     22.61604  eV     1   --> A''            
     e( 18 - 18) =     25.71600  eV     1   --> A'             
     e( 19 - 19) =     26.11658  eV     1   --> A''            
     e( 20 - 20) =     29.51274  eV     1   --> A'             
     e( 21 - 21) =     30.54780  eV     1   --> A'             

 **************************************************************************

 **************************************************************************

                    xk=(   0.12374,   0.49497,   0.12374  )

     Band symmetry, C_s (m)     point group:

     e(  1 -  1) =    -66.91723  eV     1   --> A'             
     e(  2 -  2) =    -35.75667  eV     1   --> A'             
     e(  3 -  3) =    -35.74368  eV     1   --> A'             
     e(  4 -  4) =    -35.74164  eV     1   --> A''            
     e(  5 -  5) =     -2.15141  eV     1   --> A'             
     e(  6 -  6) =      5.51970  eV     1   --> A'             
     e(  7 -  7) =      7.24398  eV     1   --> A'             
     e(  8 -  8) =      7.55389  eV     1   --> A''            
     e(  9 -  9) =     10.46001  eV     1   --> A'             
     e( 10 - 10) =     11.68711  eV     1   --> A''            
     e( 11 - 11) =     11.86134  eV     1   --> A'             
     e( 12 - 12) =     13.00898  eV     1   --> A''            
     e( 13 - 13) =     13.52787  eV     1   --> A'             
     e( 14 - 14) =     17.84511  eV     1   --> A'             
     e( 15 - 15) =     19.62009  eV     1   --> A'             
     e( 16 - 16) =     22.13368  eV     1   --> A'             
     e( 17 - 17) =     22.54607  eV     1   --> A''            
     e( 18 - 18) =     25.39182  eV     1   --> A'             
     e( 19 - 19) =     25.98524  eV     1   --> A''            
     e( 20 - 20) =     29.70727  eV     1   --> A'             
     e( 21 - 21) =     30.55572  eV     1   --> A'             

 **************************************************************************

 **************************************************************************

                    xk=(   0.11785,   0.47140,   0.11785  )

     Band symmetry, C_s (m)     point group:

     e(  1 -  1) =    -66.91732  eV     1   --> A'             
     e(  2 -  2) =    -35.75585  eV     1   --> A'             
     e(  3 -  3) =    -35.74292  eV     1   --> A'             
     e(  4 -  4) =    -35.74131  eV     1   --> A''            
     e(  5 -  5) =     -2.22877  eV     1   --> A'             
     e(  6 -  6) =      5.55788  eV     1   --> A'             
     e(  7 -  7) =      7.26622  eV     1   --> A'             
     e(  8 -  8) =      7.52397  eV     1   --> A''            
     e(  9 -  9) =     10.48272  eV     1   --> A'             
     e( 10 - 10) =     11.68458  eV     1   --> A''            
     e( 11 - 11) =     12.01983  eV     1   --> A'             
     e( 12 - 12) =     13.09185  eV     1   --> A''            
     e( 13 - 13) =     13.66980  eV     1   --> A'             
     e( 14 - 14) =     17.82498  eV     1   --> A'             
     e( 15 - 15) =     19.58976  eV     1   --> A'             
     e( 16 - 16) =     21.91681  eV     1   --> A'             
     e( 17 - 17) =     22.46362  eV     1   --> A''            
     e( 18 - 18) =     25.05612  eV     1   --> A'             
     e( 19 - 19) =     25.83730  eV     1   --> A''            
     e( 20 - 20) =     29.67376  eV     1   --> A'             
     e( 21 - 21) =     30.80780  eV     1   --> A'             

 **************************************************************************

 **************************************************************************

                    xk=(   0.11196,   0.44783,   0.11196  )

     Band symmetry, C_s (m)     point group:

     e(  1 -  1) =    -66.91743  eV     1   --> A'             
     e(  2 -  2) =    -35.75484  eV     1   --> A'             
     e(  3 -  3) =    -35.74216  eV     1   --> A'             
     e(  4 -  4) =    -35.74096  eV     1   --> A''            
     e(  5 -  5) =     -2.31172  eV     1   --> A'             
     e(  6 -  6) =      5.60762  eV     1   --> A'             
     e(  7 -  7) =      7.28231  eV     1   --> A'             
     e(  8 -  8) =      7.49311  eV     1   --> A''            
     e(  9 -  9) =     10.50369  eV     1   --> A'             
     e( 10 - 10) =     11.67083  eV     1   --> A''            
     e( 11 - 11) =     12.20198  eV     1   --> A'             
     e( 12 - 12) =     13.19510  eV     1   --> A''            
     e( 13 - 13) =     13.81698  eV     1   --> A'             
     e( 14 - 14) =     17.80135  eV     1   --> A'             
     e( 15 - 15) =     19.56766  eV     1   --> A'             
     e( 16 - 16) =     21.70436  eV     1   --> A'             
     e( 17 - 17) =     22.36786  eV     1   --> A''            
     e( 18 - 18) =     24.72122  eV     1   --> A'             
     e( 19 - 19) =     25.68309  eV     1   --> A''            
     e( 20 - 20) =     29.51214  eV     1   --> A'             
     e( 21 - 21) =     31.18604  eV     1   --> A'             

 **************************************************************************

 **************************************************************************

                    xk=(   0.10607,   0.42426,   0.10607  )

     Band symmetry, C_s (m)     point group:

     e(  1 -  1) =    -66.91754  eV     1   --> A'             
     e(  2 -  2) =    -35.75373  eV     1   --> A'             
     e(  3 -  3) =    -35.74139  eV     1   --> A'             
[...]

                    xk=(  -0.25927,  -0.70711,   0.00000  )

     Band symmetry, C_2  (2)    point group:

     e(  1 -  1) =    -66.91682  eV     1   --> B              
     e(  2 -  2) =    -35.75759  eV     1   --> A              
     e(  3 -  3) =    -35.74869  eV     1   --> A              
     e(  4 -  4) =    -35.74464  eV     1   --> B              
     e(  5 -  5) =     -1.79134  eV     1   --> A              
     e(  6 -  6) =      5.68230  eV     1   --> B              
     e(  7 -  7) =      6.85921  eV     1   --> B              
     e(  8 -  8) =      7.65170  eV     1   --> A              
     e(  9 -  9) =     10.06536  eV     1   --> A              
     e( 10 - 10) =     11.03133  eV     1   --> B              
     e( 11 - 11) =     11.92143  eV     1   --> B              
     e( 12 - 12) =     12.39570  eV     1   --> A              
     e( 13 - 13) =     13.24757  eV     1   --> B              
     e( 14 - 14) =     18.55071  eV     1   --> A              
     e( 15 - 15) =     20.19988  eV     1   --> B              
     e( 16 - 16) =     21.95743  eV     1   --> A              
     e( 17 - 17) =     22.68681  eV     1   --> B              
     e( 18 - 18) =     27.25253  eV     1   --> A              
     e( 19 - 19) =     28.31032  eV     1   --> B              
     e( 20 - 20) =     28.60242  eV     1   --> B              
     e( 21 - 21) =     28.78022  eV     1   --> A              

 **************************************************************************

 **************************************************************************

                    xk=(  -0.23570,  -0.70711,  -0.00000  )

     Band symmetry, C_2  (2)    point group:

     e(  1 -  1) =    -66.91680  eV     1   --> B              
     e(  2 -  2) =    -35.75815  eV     1   --> A              
     e(  3 -  3) =    -35.74808  eV     1   --> A              
     e(  4 -  4) =    -35.74456  eV     1   --> B              
     e(  5 -  5) =     -1.79161  eV     1   --> A              
     e(  6 -  6) =      5.58770  eV     1   --> B              
     e(  7 -  7) =      6.98491  eV     1   --> B              
     e(  8 -  8) =      7.66335  eV     1   --> A              
     e(  9 -  9) =     10.07131  eV     1   --> A              
     e( 10 - 10) =     11.06764  eV     1   --> B              
     e( 11 - 11) =     11.92099  eV     1   --> B              
     e( 12 - 12) =     12.37550  eV     1   --> A              
     e( 13 - 13) =     13.18674  eV     1   --> B              
     e( 14 - 14) =     18.38742  eV     1   --> A              
     e( 15 - 15) =     19.95305  eV     1   --> B              
     e( 16 - 16) =     22.24867  eV     1   --> A              
     e( 17 - 17) =     23.02573  eV     1   --> B              
     e( 18 - 18) =     27.22417  eV     1   --> A              
     e( 19 - 19) =     28.23369  eV     1   --> B              
     e( 20 - 20) =     28.56216  eV     1   --> B              
     e( 21 - 21) =     28.67188  eV     1   --> A              

 **************************************************************************

 **************************************************************************

                    xk=(  -0.21213,  -0.70711,   0.00000  )

     Band symmetry, C_2  (2)    point group:

     e(  1 -  1) =    -66.91680  eV     1   --> B              
     e(  2 -  2) =    -35.75870  eV     1   --> A              
     e(  3 -  3) =    -35.74750  eV     1   --> A              
     e(  4 -  4) =    -35.74455  eV     1   --> B              
     e(  5 -  5) =     -1.79193  eV     1   --> A              
     e(  6 -  6) =      5.49772  eV     1   --> B              
     e(  7 -  7) =      7.10996  eV     1   --> B              
     e(  8 -  8) =      7.67656  eV     1   --> A              
     e(  9 -  9) =     10.07823  eV     1   --> A              
     e( 10 - 10) =     11.11302  eV     1   --> B              
     e( 11 - 11) =     11.91929  eV     1   --> B              
     e( 12 - 12) =     12.35234  eV     1   --> A              
     e( 13 - 13) =     13.11261  eV     1   --> B              
     e( 14 - 14) =     18.22642  eV     1   --> A              
     e( 15 - 15) =     19.72437  eV     1   --> B              
     e( 16 - 16) =     22.56115  eV     1   --> A              
     e( 17 - 17) =     23.36607  eV     1   --> B              
     e( 18 - 18) =     27.18996  eV     1   --> A              
     e( 19 - 19) =     28.15113  eV     1   --> B              
     e( 20 - 20) =     28.50066  eV     1   --> B              
     e( 21 - 21) =     28.56583  eV     1   --> A              

 **************************************************************************

 **************************************************************************

                    xk=(  -0.18856,  -0.70711,   0.00000  )

     Band symmetry, C_2  (2)    point group:

     e(  1 -  1) =    -66.91677  eV     1   --> B              
     e(  2 -  2) =    -35.75914  eV     1   --> A              
     e(  3 -  3) =    -35.74691  eV     1   --> A              
     e(  4 -  4) =    -35.74454  eV     1   --> B              
     e(  5 -  5) =     -1.79225  eV     1   --> A              
     e(  6 -  6) =      5.41448  eV     1   --> B              
     e(  7 -  7) =      7.23109  eV     1   --> B              
     e(  8 -  8) =      7.69080  eV     1   --> A              
     e(  9 -  9) =     10.08588  eV     1   --> A              
     e( 10 - 10) =     11.16883  eV     1   --> B              
     e( 11 - 11) =     11.91855  eV     1   --> B              
     e( 12 - 12) =     12.32633  eV     1   --> A              
     e( 13 - 13) =     13.02694  eV     1   --> B              
     e( 14 - 14) =     18.07421  eV     1   --> A              
     e( 15 - 15) =     19.51679  eV     1   --> B              
     e( 16 - 16) =     22.88515  eV     1   --> A              
     e( 17 - 17) =     23.70664  eV     1   --> B              
     e( 18 - 18) =     27.14972  eV     1   --> A              
     e( 19 - 19) =     28.05929  eV     1   --> B              
     e( 20 - 20) =     28.42318  eV     1   --> B              
     e( 21 - 21) =     28.46515  eV     1   --> A              

 **************************************************************************

 **************************************************************************

                    xk=(  -0.16499,  -0.70711,   0.00000  )

     Band symmetry, C_2  (2)    point group:

     e(  1 -  1) =    -66.91678  eV     1   --> B              
     e(  2 -  2) =    -35.75968  eV     1   --> A              
     e(  3 -  3) =    -35.74638  eV     1   --> A              
     e(  4 -  4) =    -35.74454  eV     1   --> B              
     e(  5 -  5) =     -1.79259  eV     1   --> A              
     e(  6 -  6) =      5.33913  eV     1   --> B              
     e(  7 -  7) =      7.34521  eV     1   --> B              
     e(  8 -  8) =      7.70540  eV     1   --> A              
     e(  9 -  9) =     10.09400  eV     1   --> A              
     e( 10 - 10) =     11.23349  eV     1   --> B              
     e( 11 - 11) =     11.91711  eV     1   --> B              
     e( 12 - 12) =     12.29840  eV     1   --> A              
     e( 13 - 13) =     12.92839  eV     1   --> B              
     e( 14 - 14) =     17.93491  eV     1   --> A              
     e( 15 - 15) =     19.33118  eV     1   --> B              
     e( 16 - 16) =     23.21229  eV     1   --> A              
     e( 17 - 17) =     24.04493  eV     1   --> B              
     e( 18 - 18) =     27.10343  eV     1   --> A              
     e( 19 - 19) =     27.95095  eV     1   --> B              
     e( 20 - 20) =     28.33761  eV     1   --> B              
     e( 21 - 21) =     28.37198  eV     1   --> A              

 **************************************************************************

 **************************************************************************

                    xk=(  -0.14142,  -0.70711,  -0.00000  )

     Band symmetry, C_2  (2)    point group:

     e(  1 -  1) =    -66.91675  eV     1   --> B              
     e(  2 -  2) =    -35.76008  eV     1   --> A              
     e(  3 -  3) =    -35.74587  eV     1   --> A              
     e(  4 -  4) =    -35.74449  eV     1   --> B              
     e(  5 -  5) =     -1.79291  eV     1   --> A              
     e(  6 -  6) =      5.27268  eV     1   --> B              
     e(  7 -  7) =      7.44999  eV     1   --> B              
     e(  8 -  8) =      7.71988  eV     1   --> A              
     e(  9 -  9) =     10.10276  eV     1   --> A              
     e( 10 - 10) =     11.30880  eV     1   --> B              
     e( 11 - 11) =     11.91601  eV     1   --> B              
     e( 12 - 12) =     12.27154  eV     1   --> A              
     e( 13 - 13) =     12.82022  eV     1   --> B              
     e( 14 - 14) =     17.81185  eV     1   --> A              
     e( 15 - 15) =     19.16931  eV     1   --> B              
     e( 16 - 16) =     23.53470  eV     1   --> A              
     e( 17 - 17) =     24.37995  eV     1   --> B              
     e( 18 - 18) =     27.05182  eV     1   --> A              
     e( 19 - 19) =     27.81823  eV     1   --> B              
     e( 20 - 20) =     28.25563  eV     1   --> B              
     e( 21 - 21) =     28.28833  eV     1   --> A              

 **************************************************************************

 **************************************************************************

                    xk=(  -0.11785,  -0.70711,   0.00000  )

     Band symmetry, C_2  (2)    point group:

     e(  1 -  1) =    -66.91676  eV     1   --> B              
     e(  2 -  2) =    -35.76052  eV     1   --> A              
     e(  3 -  3) =    -35.74548  eV     1   --> A              
     e(  4 -  4) =    -35.74450  eV     1   --> B              
     e(  5 -  5) =     -1.79323  eV     1   --> A              
     e(  6 -  6) =      5.21549  eV     1   --> B              
     e(  7 -  7) =      7.54284  eV     1   --> B              
     e(  8 -  8) =      7.73340  eV     1   --> A              
     e(  9 -  9) =     10.11084  eV     1   --> A              
     e( 10 - 10) =     11.39302  eV     1   --> B              
     e( 11 - 11) =     11.91512  eV     1   --> B              
     e( 12 - 12) =     12.24435  eV     1   --> A              
     e( 13 - 13) =     12.70254  eV     1   --> B              
     e( 14 - 14) =     17.70521  eV     1   --> A              
     e( 15 - 15) =     19.03111  eV     1   --> B              
     e( 16 - 16) =     23.84310  eV     1   --> A              
     e( 17 - 17) =     24.70867  eV     1   --> B              
     e( 18 - 18) =     26.99465  eV     1   --> A              
     e( 19 - 19) =     27.65612  eV     1   --> B              
     e( 20 - 20) =     28.18523  eV     1   --> B              
     e( 21 - 21) =     28.21480  eV     1   --> A              

 **************************************************************************

 **************************************************************************

                    xk=(  -0.09428,  -0.70711,   0.00000  )

     Band symmetry, C_2  (2)    point group:

     e(  1 -  1) =    -66.91675  eV     1   --> B              
     e(  2 -  2) =    -35.76088  eV     1   --> A              
     e(  3 -  3) =    -35.74506  eV     1   --> A              
     e(  4 -  4) =    -35.74447  eV     1   --> B              
     e(  5 -  5) =     -1.79350  eV     1   --> A              
     e(  6 -  6) =      5.16830  eV     1   --> B              
     e(  7 -  7) =      7.62190  eV     1   --> B              
     e(  8 -  8) =      7.74542  eV     1   --> A              
     e(  9 -  9) =     10.11891  eV     1   --> A              
     e( 10 - 10) =     11.48640  eV     1   --> B              
     e( 11 - 11) =     11.91510  eV     1   --> B              
     e( 12 - 12) =     12.21972  eV     1   --> A              
     e( 13 - 13) =     12.57919  eV     1   --> B              
     e( 14 - 14) =     17.61836  eV     1   --> A              
     e( 15 - 15) =     18.91847  eV     1   --> B              
     e( 16 - 16) =     24.12748  eV     1   --> A              
     e( 17 - 17) =     25.02880  eV     1   --> B              
     e( 18 - 18) =     26.93379  eV     1   --> A              
     e( 19 - 19) =     27.46686  eV     1   --> B              
     e( 20 - 20) =     28.13015  eV     1   --> B              
     e( 21 - 21) =     28.15277  eV     1   --> A              

 **************************************************************************

 **************************************************************************

                    xk=(  -0.07071,  -0.70711,   0.00000  )

     Band symmetry, C_2  (2)    point group:

     e(  1 -  1) =    -66.91676  eV     1   --> B              
     e(  2 -  2) =    -35.76116  eV     1   --> A              
     e(  3 -  3) =    -35.74478  eV     1   --> A              
     e(  4 -  4) =    -35.74450  eV     1   --> B              
     e(  5 -  5) =     -1.79373  eV     1   --> A              
     e(  6 -  6) =      5.13114  eV     1   --> B              
     e(  7 -  7) =      7.68528  eV     1   --> B              
     e(  8 -  8) =      7.75543  eV     1   --> A              
     e(  9 -  9) =     10.12556  eV     1   --> A              
     e( 10 - 10) =     11.58587  eV     1   --> B              
     e( 11 - 11) =     11.91567  eV     1   --> B              
     e( 12 - 12) =     12.19893  eV     1   --> A              
     e( 13 - 13) =     12.45282  eV     1   --> B              
     e( 14 - 14) =     17.54967  eV     1   --> A              
     e( 15 - 15) =     18.82985  eV     1   --> B              
     e( 16 - 16) =     24.37530  eV     1   --> A              
     e( 17 - 17) =     25.33511  eV     1   --> B              
     e( 18 - 18) =     26.87268  eV     1   --> A              
     e( 19 - 19) =     27.25775  eV     1   --> B              
     e( 20 - 20) =     28.08909  eV     1   --> B              
     e( 21 - 21) =     28.10332  eV     1   --> A              

 **************************************************************************

 **************************************************************************

                    xk=(  -0.04714,  -0.70711,   0.00000  )

     Band symmetry, C_2  (2)    point group:

     e(  1 -  1) =    -66.91673  eV     1   --> B              
     e(  2 -  2) =    -35.76130  eV     1   --> A              
     e(  3 -  3) =    -35.74456  eV     1   -->   ?
     e(  4 -  4) =    -35.74439  eV     1   -->   ?
     e(  5 -  5) =     -1.79389  eV     1   --> A              
     e(  6 -  6) =      5.10460  eV     1   --> B              
     e(  7 -  7) =      7.73163  eV     1   --> B              
     e(  8 -  8) =      7.76306  eV     1   --> A              
     e(  9 -  9) =     10.13094  eV     1   --> A              
     e( 10 - 10) =     11.68598  eV     1   --> B              
     e( 11 - 11) =     11.92022  eV     1   --> B              
     e( 12 - 12) =     12.18474  eV     1   --> A              
     e( 13 - 13) =     12.32978  eV     1   --> B              
     e( 14 - 14) =     17.50092  eV     1   --> A              
     e( 15 - 15) =     18.76715  eV     1   --> B              
     e( 16 - 16) =     24.57153  eV     1   --> A              
     e( 17 - 17) =     25.61772  eV     1   --> B              
     e( 18 - 18) =     26.81782  eV     1   --> A              
     e( 19 - 19) =     27.04265  eV     1   --> B              
     e( 20 - 20) =     28.06098  eV     1   --> B              
     e( 21 - 21) =     28.06820  eV     1   --> A              

 **************************************************************************

 **************************************************************************

                    xk=(  -0.02357,  -0.70711,  -0.00000  )

     Band symmetry, C_2  (2)    point group:

     e(  1 -  1) =    -66.91674  eV     1   --> B              
     e(  2 -  2) =    -35.76143  eV     1   --> A              
     e(  3 -  4) =    -35.74444  eV     2   --> A              
     e(  3 -  4) =    -35.74444  eV     2   --> B              
     e(  5 -  5) =     -1.79400  eV     1   --> A              
     e(  6 -  6) =      5.08852  eV     1   --> B              
     e(  7 -  7) =      7.75983  eV     1   --> B              
     e(  8 -  8) =      7.76772  eV     1   --> A              
     e(  9 -  9) =     10.13412  eV     1   --> A              
     e( 10 - 10) =     11.76937  eV     1   --> B              
     e( 11 - 11) =     11.93182  eV     1   --> B              
     e( 12 - 12) =     12.17483  eV     1   --> A              
     e( 13 - 13) =     12.22254  eV     1   --> B              
     e( 14 - 14) =     17.47119  eV     1   --> A              
     e( 15 - 15) =     18.72917  eV     1   --> B              
     e( 16 - 16) =     24.69924  eV     1   --> A              
     e( 17 - 17) =     25.84781  eV     1   --> B              
     e( 18 - 18) =     26.77814  eV     1   --> A              
     e( 19 - 19) =     26.85179  eV     1   --> B              
     e( 20 - 20) =     28.04444  eV     1   --> B              
     e( 21 - 21) =     28.04633  eV     1   --> A              

 **************************************************************************

 **************************************************************************

                    xk=(   0.00000,  -0.70711,   0.00000  )

     point group D_2d (-42m)
     there are  5 classes
     the character table:

       E     2S4   C2    2C2'  2s_d 
A_1    1.00  1.00  1.00  1.00  1.00
A_2    1.00  1.00  1.00 -1.00 -1.00
B_1    1.00 -1.00  1.00  1.00 -1.00
B_2    1.00 -1.00  1.00 -1.00  1.00
E      2.00  0.00 -2.00  0.00  0.00

     the symmetry operations in each class and the name of the first element:

     E        1
                                                                 
     2S4      7    8
                                                                 
     C2       3
                                                                 
     2C2'     2    4
                                                                 
     2s_d     5    6
                                                                 

     Band symmetry, D_2d (-42m) point group:

     e(  1 -  1) =    -66.91674  eV     1   --> B_2  X_3  W_2  
     e(  2 -  2) =    -35.76147  eV     1   --> A_1  X_1  W_1  
     e(  3 -  4) =    -35.74440  eV     2   --> E    X_5  W_3  
     e(  5 -  5) =     -1.79403  eV     1   --> A_1  X_1  W_1  
     e(  6 -  6) =      5.08315  eV     1   --> B_2  X_3  W_2  
     e(  7 -  8) =      7.76927  eV     2   --> E    X_5  W_3  
     e(  9 -  9) =     10.13521  eV     1   --> A_1  X_1  W_1  
     e( 10 - 10) =     11.80329  eV     1   --> B_2  X_3  W_2  
     e( 11 - 11) =     11.94483  eV     1   --> A_2  X_4  W_2' 
     e( 12 - 13) =     12.17144  eV     2   --> E    X_5  W_3  
     e( 14 - 14) =     17.46127  eV     1   --> A_1  X_1  W_1  
     e( 15 - 15) =     18.71650  eV     1   --> B_2  X_3  W_2  
     e( 16 - 16) =     24.74384  eV     1   --> B_1  X_2  W_1' 
     e( 17 - 17) =     25.94903  eV     1   --> B_2  X_3  W_2  
     e( 18 - 19) =     26.76348  eV     2   --> E    X_5  W_3  
     e( 20 - 21) =     28.03898  eV     2   --> E    X_5  W_3  

 **************************************************************************

     BANDS        :     15.14s CPU     15.33s WALL


   This run was terminated on:  13:35:56  30Jan2025            

=------------------------------------------------------------------------------=
   JOB DONE.
=------------------------------------------------------------------------------=
