
     Program BANDS v.7.3.1 starts on 30Jan2025 at 14: 4: 4 

     This program is part of the open-source Quantum ESPRESSO suite
     for quantum simulation of materials; please cite
         "P. Giannozzi et al., J. Phys.:Condens. Matter 21 395502 (2009);
         "P. Giannozzi et al., J. Phys.:Condens. Matter 29 465901 (2017);
         "P. Giannozzi et al., J. Chem. Phys. 152 154105 (2020);
          URL http://www.quantum-espresso.org", 
     in publications or presentations arising from this work. More details at
     http://www.quantum-espresso.org/quote

     Parallel version (MPI), running on     1 processors

     MPI processes distributed on     1 nodes
     583 MiB available memory on the printing compute node when the environment starts


     Reading xml data from directory:

     ./temp/mns.save/
     Message from routine  set_nelup_neldw :
     BEWARE: non-integer number of up and down electrons!
     file Mn.pbe-spn-kjpaw_psl.0.3.1.UPF: wavefunction(s)  3P 3D renormalized
     file S.pbe-n-kjpaw_psl.1.0.0.UPF: wavefunction(s)  3S 3P renormalized

     IMPORTANT: XC functional enforced from input :
     Exchange-correlation= PBE
                           (   1   4   3   4   0   0   0)
     Any further DFT definition will be discarded
     Please, verify this is what you really want


     G-vector sticks info
     --------------------
     sticks:   dense  smooth     PW     G-vecs:    dense   smooth      PW
     Sum         547     475    151                 8291     6855    1243

     Using Slab Decomposition


     Check: negative core charge=   -0.000107
     Reading collected, re-writing distributed wavefunctions
     high-symmetry point:  0.0000 0.0000 0.0000   x coordinate   0.0000
     high-symmetry point:  0.0000 0.7071 0.0000   x coordinate   0.7071
     high-symmetry point:  0.1768 0.7071 0.1768   x coordinate   0.9571
     high-symmetry point:  0.0000 0.0000 0.0000   x coordinate   1.7071
     high-symmetry point:  0.3536 0.3536 0.3536   x coordinate   2.3195
     high-symmetry point:  0.3536 0.7071 0.0000   x coordinate   2.8195
     high-symmetry point:  0.0000 0.7071 0.0000   x coordinate   3.1730
     high-symmetry point:  0.0000 0.0000 0.0000   x coordinate   3.8801
     high-symmetry point:  0.0000-0.7071 0.0000   x coordinate   4.5872
     high-symmetry point: -0.1768-0.7071-0.1768   x coordinate   4.8372
     high-symmetry point:  0.0000 0.0000 0.0000   x coordinate   5.5872
     high-symmetry point: -0.3536-0.3536-0.3536   x coordinate   6.1996
     high-symmetry point: -0.3536-0.7071 0.0000   x coordinate   6.6996
     high-symmetry point:  0.0000-0.7071 0.0000   x coordinate   7.0532

     Plottable bands (eV) written to file bands_ppu.dat.gnu
     Bands written to file bands_ppu.dat

 **************************************************************************

                    xk=(   0.00000,   0.00000,   0.00000  )

     point group T_d (-43m) 
     there are  5 classes
     the character table:

       E     8C3   3C2   6S4   6s_d 
A_1    1.00  1.00  1.00  1.00  1.00
A_2    1.00  1.00  1.00 -1.00 -1.00
E      2.00 -1.00  2.00  0.00  0.00
T_1    3.00  0.00 -1.00  1.00 -1.00
T_2    3.00  0.00 -1.00 -1.00  1.00

     the symmetry operations in each class and the name of the first element:

     E        1
                                                                 
     8C3      5    7    8    6   12    9   10   11
                                                                 
     3C2      2    3    4
                                                                 
     6S4     15   16   20   19   23   24
                                                                 
     6s_d    13   14   17   18   21   22
                                                                 

     Band symmetry, T_d (-43m)  point group:

     e(  1 -  1) =    -67.25626  eV     1   --> A_1  G_1  P_1  
     e(  2 -  4) =    -36.06436  eV     3   --> T_2  G_15 P_4  
     e(  5 -  5) =     -3.54998  eV     1   --> A_1  G_1  P_1  
     e(  6 -  8) =      7.03136  eV     3   --> T_2  G_15 P_4  
     e(  9 - 10) =     10.81734  eV     2   --> E    G_12 P_3  
     e( 11 - 13) =     15.52690  eV     3   --> T_2  G_15 P_4  
     e( 14 - 14) =     15.65282  eV     1   --> A_1  G_1  P_1  
     e( 15 - 17) =     19.63970  eV     3   --> T_2  G_15 P_4  
     e( 18 - 19) =     24.99806  eV     2   --> E    G_12 P_3  
     e( 20 - 20) =     27.66177  eV     1   --> A_1  G_1  P_1  
     e( 21 - 21) =     28.13240  eV     1   -->   ?

 **************************************************************************

 **************************************************************************

                    xk=(   0.00000,   0.02828,   0.00000  )

     point group C_2v (mm2) 
     there are  4 classes
     the character table:

       E     C2    s_v   s_v' 
A_1    1.00  1.00  1.00  1.00
A_2    1.00  1.00 -1.00 -1.00
B_1    1.00 -1.00  1.00 -1.00
B_2    1.00 -1.00 -1.00  1.00

     the symmetry operations in each class and the name of the first element:

     E        1
                                                                 
     C2       2
                                                                 
     s_v      4
                                                                 
     s_v'     3
                                                                 

     Band symmetry, C_2v (mm2)  point group:

     e(  1 -  1) =    -67.25629  eV     1   --> A_1  D_1  S_1  
     e(  2 -  4) =    -36.06455  eV     3   --> A_1  D_1  S_1  
     e(  2 -  4) =    -36.06455  eV     3   --> B_1  D_3  S_3  
     e(  2 -  4) =    -36.06455  eV     3   --> B_2  D_4  S_4  
     e(  5 -  5) =     -3.54438  eV     1   --> A_1  D_1  S_1  
     e(  6 -  6) =      7.02051  eV     1   --> A_1  D_1  S_1  
     e(  7 -  8) =      7.03279  eV     2   --> B_1  D_3  S_3  
     e(  7 -  8) =      7.03279  eV     2   --> B_2  D_4  S_4  
     e(  9 -  9) =     10.81161  eV     1   --> A_1  D_1  S_1  
     e( 10 - 10) =     10.81970  eV     1   --> A_2  D_2  S_2  
     e( 11 - 11) =     15.43773  eV     1   --> A_1  D_1  S_1  
     e( 12 - 13) =     15.50507  eV     2   --> B_1  D_3  S_3  
     e( 12 - 13) =     15.50507  eV     2   --> B_2  D_4  S_4  
     e( 14 - 14) =     15.75724  eV     1   --> A_1  D_1  S_1  
     e( 15 - 15) =     19.62091  eV     1   --> A_1  D_1  S_1  
     e( 16 - 17) =     19.66172  eV     2   --> B_1  D_3  S_3  
     e( 16 - 17) =     19.66172  eV     2   --> B_2  D_4  S_4  
     e( 18 - 18) =     24.92734  eV     1   --> A_1  D_1  S_1  
     e( 19 - 19) =     24.99704  eV     1   --> A_2  D_2  S_2  
     e( 20 - 20) =     27.56918  eV     1   --> A_1  D_1  S_1  
     e( 21 - 21) =     28.15297  eV     1   -->   ?

 **************************************************************************

 **************************************************************************

                    xk=(   0.00000,   0.05657,   0.00000  )

     Band symmetry, C_2v (mm2)  point group:

     e(  1 -  1) =    -67.25626  eV     1   --> A_1  D_1  S_1  
     e(  2 -  2) =    -36.06487  eV     1   -->   ?
     e(  3 -  4) =    -36.06461  eV     2   -->   ?
     e(  5 -  5) =     -3.52707  eV     1   --> A_1  D_1  S_1  
     e(  6 -  6) =      6.98904  eV     1   --> A_1  D_1  S_1  
     e(  7 -  8) =      7.03785  eV     2   --> B_1  D_3  S_3  
     e(  7 -  8) =      7.03785  eV     2   --> B_2  D_4  S_4  
     e(  9 -  9) =     10.79477  eV     1   --> A_1  D_1  S_1  
     e( 10 - 10) =     10.82701  eV     1   --> A_2  D_2  S_2  
     e( 11 - 11) =     15.32218  eV     1   --> A_1  D_1  S_1  
     e( 12 - 13) =     15.44530  eV     2   --> B_1  D_3  S_3  
     e( 12 - 13) =     15.44530  eV     2   --> B_2  D_4  S_4  
     e( 14 - 14) =     15.92203  eV     1   --> A_1  D_1  S_1  
     e( 15 - 15) =     19.56641  eV     1   --> A_1  D_1  S_1  
     e( 16 - 17) =     19.72678  eV     2   --> B_1  D_3  S_3  
     e( 16 - 17) =     19.72678  eV     2   --> B_2  D_4  S_4  
     e( 18 - 18) =     24.72827  eV     1   --> A_1  D_1  S_1  
     e( 19 - 19) =     24.99440  eV     1   --> A_2  D_2  S_2  
     e( 20 - 20) =     27.48182  eV     1   --> A_1  D_1  S_1  
     e( 21 - 21) =     28.21580  eV     1   -->   ?

 **************************************************************************

 **************************************************************************

                    xk=(   0.00000,   0.08485,   0.00000  )

     Band symmetry, C_2v (mm2)  point group:

     e(  1 -  1) =    -67.25622  eV     1   --> A_1  D_1  S_1  
     e(  2 -  2) =    -36.06539  eV     1   --> A_1  D_1  S_1  
     e(  3 -  4) =    -36.06481  eV     2   --> B_1  D_3  S_3  
     e(  3 -  4) =    -36.06481  eV     2   --> B_2  D_4  S_4  
     e(  5 -  5) =     -3.49840  eV     1   --> A_1  D_1  S_1  
     e(  6 -  6) =      6.93785  eV     1   --> A_1  D_1  S_1  
     e(  7 -  8) =      7.04632  eV     2   --> B_1  D_3  S_3  
     e(  7 -  8) =      7.04632  eV     2   --> B_2  D_4  S_4  
     e(  9 -  9) =     10.76719  eV     1   --> A_1  D_1  S_1  
     e( 10 - 10) =     10.83908  eV     1   --> A_2  D_2  S_2  
     e( 11 - 11) =     15.21680  eV     1   --> A_1  D_1  S_1  
     e( 12 - 13) =     15.34970  eV     2   --> B_1  D_3  S_3  
     e( 12 - 13) =     15.34970  eV     2   --> B_2  D_4  S_4  
     e( 14 - 14) =     16.10469  eV     1   --> A_1  D_1  S_1  
     e( 15 - 15) =     19.48151  eV     1   --> A_1  D_1  S_1  
     e( 16 - 17) =     19.83185  eV     2   --> B_1  D_3  S_3  
     e( 16 - 17) =     19.83185  eV     2   --> B_2  D_4  S_4  
     e( 18 - 18) =     24.43470  eV     1   --> A_1  D_1  S_1  
     e( 19 - 19) =     24.99004  eV     1   --> A_2  D_2  S_2  
     e( 20 - 20) =     27.48847  eV     1   --> A_1  D_1  S_1  
     e( 21 - 21) =     28.31980  eV     1   -->   ?

 **************************************************************************

 **************************************************************************

                    xk=(   0.00000,   0.11314,   0.00000  )

     Band symmetry, C_2v (mm2)  point group:

     e(  1 -  1) =    -67.25615  eV     1   --> A_1  D_1  S_1  
     e(  2 -  2) =    -36.06610  eV     1   --> A_1  D_1  S_1  
     e(  3 -  4) =    -36.06508  eV     2   --> B_1  D_3  S_3  
     e(  3 -  4) =    -36.06508  eV     2   --> B_2  D_4  S_4  
     e(  5 -  5) =     -3.45863  eV     1   --> A_1  D_1  S_1  
     e(  6 -  6) =      6.86867  eV     1   --> A_1  D_1  S_1  
     e(  7 -  8) =      7.05824  eV     2   --> B_1  D_3  S_3  
     e(  7 -  8) =      7.05824  eV     2   --> B_2  D_4  S_4  
     e(  9 -  9) =     10.72955  eV     1   --> A_1  D_1  S_1  
     e( 10 - 10) =     10.85577  eV     1   --> A_2  D_2  S_2  
     e( 11 - 11) =     15.12161  eV     1   --> A_1  D_1  S_1  
     e( 12 - 13) =     15.22320  eV     2   --> B_1  D_3  S_3  
     e( 12 - 13) =     15.22320  eV     2   --> B_2  D_4  S_4  
     e( 14 - 14) =     16.29751  eV     1   --> A_1  D_1  S_1  
     e( 15 - 15) =     19.37474  eV     1   --> A_1  D_1  S_1  
     e( 16 - 17) =     19.97286  eV     2   --> B_1  D_3  S_3  
     e( 16 - 17) =     19.97286  eV     2   --> B_2  D_4  S_4  
     e( 18 - 18) =     24.08795  eV     1   --> A_1  D_1  S_1  
     e( 19 - 19) =     24.98400  eV     1   --> A_2  D_2  S_2  
     e( 20 - 20) =     27.58045  eV     1   --> A_1  D_1  S_1  
     e( 21 - 21) =     28.46385  eV     1   -->   ?

 **************************************************************************

 **************************************************************************

                    xk=(   0.00000,   0.14142,   0.00000  )

     Band symmetry, C_2v (mm2)  point group:

     e(  1 -  1) =    -67.25609  eV     1   --> A_1  D_1  S_1  
     e(  2 -  2) =    -36.06715  eV     1   --> A_1  D_1  S_1  
     e(  3 -  4) =    -36.06543  eV     2   --> B_1  D_3  S_3  
     e(  3 -  4) =    -36.06543  eV     2   --> B_2  D_4  S_4  
     e(  5 -  5) =     -3.40821  eV     1   --> A_1  D_1  S_1  
     e(  6 -  6) =      6.78366  eV     1   --> A_1  D_1  S_1  
     e(  7 -  8) =      7.07351  eV     2   --> B_1  D_3  S_3  
     e(  7 -  8) =      7.07351  eV     2   --> B_2  D_4  S_4  
     e(  9 -  9) =     10.68109  eV     1   --> A_1  D_1  S_1  
     e( 10 - 10) =     10.87684  eV     1   --> A_2  D_2  S_2  
     e( 11 - 11) =     15.03291  eV     1   --> A_1  D_1  S_1  
     e( 12 - 13) =     15.07078  eV     2   --> B_1  D_3  S_3  
     e( 12 - 13) =     15.07078  eV     2   --> B_2  D_4  S_4  
     e( 14 - 14) =     16.49231  eV     1   --> A_1  D_1  S_1  
     e( 15 - 15) =     19.25772  eV     1   --> A_1  D_1  S_1  
     e( 16 - 17) =     20.14541  eV     2   --> B_1  D_3  S_3  
     e( 16 - 17) =     20.14541  eV     2   --> B_2  D_4  S_4  
     e( 18 - 18) =     23.72213  eV     1   --> A_1  D_1  S_1  
     e( 19 - 19) =     24.97631  eV     1   --> A_2  D_2  S_2  
     e( 20 - 20) =     27.73494  eV     1   --> A_1  D_1  S_1  
     e( 21 - 21) =     28.64624  eV     1   -->   ?

 **************************************************************************

 **************************************************************************

                    xk=(   0.00000,   0.16971,   0.00000  )

     Band symmetry, C_2v (mm2)  point group:

     e(  1 -  1) =    -67.25600  eV     1   --> A_1  D_1  S_1  
     e(  2 -  2) =    -36.06824  eV     1   --> A_1  D_1  S_1  
     e(  3 -  4) =    -36.06584  eV     2   --> B_1  D_3  S_3  
     e(  3 -  4) =    -36.06584  eV     2   --> B_2  D_4  S_4  
     e(  5 -  5) =     -3.34748  eV     1   --> A_1  D_1  S_1  
     e(  6 -  6) =      6.68538  eV     1   --> A_1  D_1  S_1  
     e(  7 -  8) =      7.09236  eV     2   --> B_1  D_3  S_3  
     e(  7 -  8) =      7.09236  eV     2   --> B_2  D_4  S_4  
     e(  9 -  9) =     10.62618  eV     1   --> A_1  D_1  S_1  
     e( 10 - 10) =     10.90206  eV     1   --> A_2  D_2  S_2  
     e( 11 - 12) =     14.89869  eV     2   --> B_1  D_3  S_3  
     e( 11 - 12) =     14.89869  eV     2   --> B_2  D_4  S_4  
     e( 13 - 13) =     14.94646  eV     1   --> A_1  D_1  S_1  
     e( 14 - 14) =     16.67787  eV     1   --> A_1  D_1  S_1  
     e( 15 - 15) =     19.14545  eV     1   --> A_1  D_1  S_1  
     e( 16 - 17) =     20.34551  eV     2   --> B_1  D_3  S_3  
     e( 16 - 17) =     20.34551  eV     2   --> B_2  D_4  S_4  
     e( 18 - 18) =     23.36588  eV     1   --> A_1  D_1  S_1  
     e( 19 - 19) =     24.96710  eV     1   --> A_2  D_2  S_2  
     e( 20 - 20) =     27.93359  eV     1   --> A_1  D_1  S_1  
     e( 21 - 21) =     28.86538  eV     1   -->   ?

 **************************************************************************

 **************************************************************************

                    xk=(   0.00000,   0.19799,   0.00000  )

     Band symmetry, C_2v (mm2)  point group:

     e(  1 -  1) =    -67.25586  eV     1   --> A_1  D_1  S_1  
     e(  2 -  2) =    -36.06929  eV     1   --> A_1  D_1  S_1  
     e(  3 -  4) =    -36.06628  eV     2   --> B_1  D_3  S_3  
     e(  3 -  4) =    -36.06628  eV     2   --> B_2  D_4  S_4  
     e(  5 -  5) =     -3.27705  eV     1   --> A_1  D_1  S_1  
     e(  6 -  6) =      6.57646  eV     1   --> A_1  D_1  S_1  
     e(  7 -  8) =      7.11482  eV     2   --> B_1  D_3  S_3  
     e(  7 -  8) =      7.11482  eV     2   --> B_2  D_4  S_4  
     e(  9 -  9) =     10.56653  eV     1   --> A_1  D_1  S_1  
     e( 10 - 10) =     10.93110  eV     1   --> A_2  D_2  S_2  
     e( 11 - 12) =     14.71204  eV     2   --> B_1  D_3  S_3  
     e( 11 - 12) =     14.71204  eV     2   --> B_2  D_4  S_4  
     e( 13 - 13) =     14.85685  eV     1   --> A_1  D_1  S_1  
     e( 14 - 14) =     16.83948  eV     1   --> A_1  D_1  S_1  
     e( 15 - 15) =     19.05544  eV     1   --> A_1  D_1  S_1  
     e( 16 - 17) =     20.56983  eV     2   --> B_1  D_3  S_3  
     e( 16 - 17) =     20.56983  eV     2   --> B_2  D_4  S_4  
     e( 18 - 18) =     23.03845  eV     1   --> A_1  D_1  S_1  
     e( 19 - 19) =     24.95645  eV     1   --> A_2  D_2  S_2  
     e( 20 - 20) =     28.16126  eV     1   --> A_1  D_1  S_1  
     e( 21 - 21) =     29.11905  eV     1   -->   ?

 **************************************************************************

 **************************************************************************

                    xk=(   0.00000,   0.22627,   0.00000  )

     Band symmetry, C_2v (mm2)  point group:

     e(  1 -  1) =    -67.25574  eV     1   --> A_1  D_1  S_1  
     e(  2 -  2) =    -36.07068  eV     1   --> A_1  D_1  S_1  
     e(  3 -  4) =    -36.06680  eV     2   --> B_1  D_3  S_3  
     e(  3 -  4) =    -36.06680  eV     2   --> B_2  D_4  S_4  
     e(  5 -  5) =     -3.19781  eV     1   --> A_1  D_1  S_1  
     e(  6 -  6) =      6.45952  eV     1   --> A_1  D_1  S_1  
     e(  7 -  8) =      7.14062  eV     2   --> B_1  D_3  S_3  
     e(  7 -  8) =      7.14062  eV     2   --> B_2  D_4  S_4  
     e(  9 -  9) =     10.49975  eV     1   --> A_1  D_1  S_1  
     e( 10 - 10) =     10.96351  eV     1   --> A_2  D_2  S_2  
     e( 11 - 12) =     14.51373  eV     2   --> B_1  D_3  S_3  
     e( 11 - 12) =     14.51373  eV     2   --> B_2  D_4  S_4  
     e( 13 - 13) =     14.75640  eV     1   --> A_1  D_1  S_1  
     e( 14 - 14) =     16.96124  eV     1   --> A_1  D_1  S_1  
     e( 15 - 15) =     19.00489  eV     1   --> A_1  D_1  S_1  
     e( 16 - 17) =     20.81548  eV     2   --> B_1  D_3  S_3  
     e( 16 - 17) =     20.81548  eV     2   --> B_2  D_4  S_4  
     e( 18 - 18) =     22.75276  eV     1   --> A_1  D_1  S_1  
     e( 19 - 19) =     24.94444  eV     1   --> A_2  D_2  S_2  
     e( 20 - 20) =     28.40527  eV     1   --> A_1  D_1  S_1  
     e( 21 - 21) =     29.40361  eV     1   -->   ?

 **************************************************************************

 **************************************************************************

                    xk=(   0.00000,   0.25456,   0.00000  )

     Band symmetry, C_2v (mm2)  point group:

     e(  1 -  1) =    -67.25559  eV     1   --> A_1  D_1  S_1  
     e(  2 -  2) =    -36.07208  eV     1   --> A_1  D_1  S_1  
     e(  3 -  4) =    -36.06732  eV     2   --> B_1  D_3  S_3  
     e(  3 -  4) =    -36.06732  eV     2   --> B_2  D_4  S_4  
     e(  5 -  5) =     -3.11044  eV     1   --> A_1  D_1  S_1  
     e(  6 -  6) =      6.33715  eV     1   --> A_1  D_1  S_1  
     e(  7 -  8) =      7.17001  eV     2   --> B_1  D_3  S_3  
     e(  7 -  8) =      7.17001  eV     2   --> B_2  D_4  S_4  
     e(  9 -  9) =     10.43010  eV     1   --> A_1  D_1  S_1  
     e( 10 - 10) =     10.99894  eV     1   --> A_2  D_2  S_2  
     e( 11 - 12) =     14.30914  eV     2   --> B_1  D_3  S_3  
     e( 11 - 12) =     14.30914  eV     2   --> B_2  D_4  S_4  
     e( 13 - 13) =     14.63932  eV     1   --> A_1  D_1  S_1  
     e( 14 - 14) =     17.03288  eV     1   --> A_1  D_1  S_1  
     e( 15 - 15) =     19.00333  eV     1   --> A_1  D_1  S_1  
     e( 16 - 17) =     21.08057  eV     2   --> B_1  D_3  S_3  
     e( 16 - 17) =     21.08057  eV     2   --> B_2  D_4  S_4  
     e( 18 - 18) =     22.52468  eV     1   --> A_1  D_1  S_1  
     e( 19 - 19) =     24.93127  eV     1   --> A_2  D_2  S_2  
     e( 20 - 20) =     28.65847  eV     1   --> A_1  D_1  S_1  
     e( 21 - 21) =     29.71604  eV     1   -->   ?

 **************************************************************************

 **************************************************************************

                    xk=(   0.00000,   0.28284,   0.00000  )

     Band symmetry, C_2v (mm2)  point group:

     e(  1 -  1) =    -67.25545  eV     1   --> A_1  D_1  S_1  
     e(  2 -  2) =    -36.07367  eV     1   --> A_1  D_1  S_1  
     e(  3 -  4) =    -36.06792  eV     2   --> B_1  D_3  S_3  
     e(  3 -  4) =    -36.06792  eV     2   --> B_2  D_4  S_4  
     e(  5 -  5) =     -3.01610  eV     1   --> A_1  D_1  S_1  
     e(  6 -  6) =      6.21169  eV     1   --> A_1  D_1  S_1  
     e(  7 -  8) =      7.20256  eV     2   --> B_1  D_3  S_3  
     e(  7 -  8) =      7.20256  eV     2   --> B_2  D_4  S_4  
     e(  9 -  9) =     10.35855  eV     1   --> A_1  D_1  S_1  
     e( 10 - 10) =     11.03677  eV     1   --> A_2  D_2  S_2  
     e( 11 - 12) =     14.09952  eV     2   --> B_1  D_3  S_3  
     e( 11 - 12) =     14.09952  eV     2   --> B_2  D_4  S_4  
     e( 13 - 13) =     14.49840  eV     1   --> A_1  D_1  S_1  
     e( 14 - 14) =     17.05722  eV     1   --> A_1  D_1  S_1  
     e( 15 - 15) =     19.04364  eV     1   --> A_1  D_1  S_1  
     e( 16 - 17) =     21.36337  eV     2   --> B_1  D_3  S_3  
     e( 16 - 17) =     21.36337  eV     2   --> B_2  D_4  S_4  
     e( 18 - 18) =     22.36749  eV     1   --> A_1  D_1  S_1  
     e( 19 - 19) =     24.91699  eV     1   --> A_2  D_2  S_2  
     e( 20 - 20) =     28.91524  eV     1   --> A_1  D_1  S_1  
     e( 21 - 21) =     30.05039  eV     1   -->   ?

 **************************************************************************

 **************************************************************************

                    xk=(   0.00000,   0.31113,   0.00000  )

     Band symmetry, C_2v (mm2)  point group:

     e(  1 -  1) =    -67.25531  eV     1   --> A_1  D_1  S_1  
     e(  2 -  2) =    -36.07532  eV     1   --> A_1  D_1  S_1  
     e(  3 -  4) =    -36.06853  eV     2   --> B_1  D_3  S_3  
     e(  3 -  4) =    -36.06853  eV     2   --> B_2  D_4  S_4  
     e(  5 -  5) =     -2.91583  eV     1   --> A_1  D_1  S_1  
     e(  6 -  6) =      6.08538  eV     1   --> A_1  D_1  S_1  
     e(  7 -  8) =      7.23830  eV     2   --> B_1  D_3  S_3  
     e(  7 -  8) =      7.23830  eV     2   --> B_2  D_4  S_4  
     e(  9 -  9) =     10.28738  eV     1   --> A_1  D_1  S_1  
     e( 10 - 10) =     11.07652  eV     1   --> A_2  D_2  S_2  
     e( 11 - 12) =     13.88875  eV     2   --> B_1  D_3  S_3  
     e( 11 - 12) =     13.88875  eV     2   --> B_2  D_4  S_4  
     e( 13 - 13) =     14.32968  eV     1   --> A_1  D_1  S_1  
     e( 14 - 14) =     17.04979  eV     1   --> A_1  D_1  S_1  
     e( 15 - 15) =     19.10319  eV     1   --> A_1  D_1  S_1  
     e( 16 - 17) =     21.66278  eV     2   --> B_1  D_3  S_3  
     e( 16 - 17) =     21.66278  eV     2   --> B_2  D_4  S_4  
     e( 18 - 18) =     22.29504  eV     1   --> A_1  D_1  S_1  
     e( 19 - 19) =     24.90184  eV     1   --> A_2  D_2  S_2  
     e( 20 - 20) =     29.17246  eV     1   --> A_1  D_1  S_1  
     e( 21 - 21) =     30.39947  eV     1   -->   ?

 **************************************************************************

 **************************************************************************

                    xk=(   0.00000,   0.33941,   0.00000  )

     Band symmetry, C_2v (mm2)  point group:

     e(  1 -  1) =    -67.25511  eV     1   --> A_1  D_1  S_1  
     e(  2 -  2) =    -36.07691  eV     1   --> A_1  D_1  S_1  
     e(  3 -  4) =    -36.06905  eV     2   --> B_1  D_3  S_3  
     e(  3 -  4) =    -36.06905  eV     2   --> B_2  D_4  S_4  
     e(  5 -  5) =     -2.81081  eV     1   --> A_1  D_1  S_1  
     e(  6 -  6) =      5.96031  eV     1   --> A_1  D_1  S_1  
     e(  7 -  8) =      7.27723  eV     2   --> B_1  D_3  S_3  
     e(  7 -  8) =      7.27723  eV     2   --> B_2  D_4  S_4  
     e(  9 -  9) =     10.21855  eV     1   --> A_1  D_1  S_1  
     e( 10 - 10) =     11.11892  eV     1   --> A_2  D_2  S_2  
     e( 11 - 12) =     13.68083  eV     2   --> B_1  D_3  S_3  
     e( 11 - 12) =     13.68083  eV     2   --> B_2  D_4  S_4  
     e( 13 - 13) =     14.13223  eV     1   --> A_1  D_1  S_1  
     e( 14 - 14) =     17.02981  eV     1   --> A_1  D_1  S_1  
     e( 15 - 15) =     19.15558  eV     1   --> A_1  D_1  S_1  
     e( 16 - 17) =     21.97810  eV     2   --> B_1  D_3  S_3  
     e( 16 - 17) =     21.97810  eV     2   --> B_2  D_4  S_4  
     e( 18 - 18) =     22.31770  eV     1   --> A_1  D_1  S_1  
     e( 19 - 19) =     24.88659  eV     1   --> A_2  D_2  S_2  
     e( 20 - 20) =     29.42854  eV     1   --> A_1  D_1  S_1  
     e( 21 - 21) =     30.75181  eV     1   -->   ?

 **************************************************************************

 **************************************************************************

                    xk=(   0.00000,   0.36770,   0.00000  )

     Band symmetry, C_2v (mm2)  point group:

     e(  1 -  1) =    -67.25495  eV     1   --> A_1  D_1  S_1  
     e(  2 -  2) =    -36.07854  eV     1   --> A_1  D_1  S_1  
     e(  3 -  4) =    -36.06968  eV     2   --> B_1  D_3  S_3  
     e(  3 -  4) =    -36.06968  eV     2   --> B_2  D_4  S_4  
     e(  5 -  5) =     -2.70259  eV     1   --> A_1  D_1  S_1  
     e(  6 -  6) =      5.83799  eV     1   --> A_1  D_1  S_1  
     e(  7 -  8) =      7.31852  eV     2   --> B_1  D_3  S_3  
     e(  7 -  8) =      7.31852  eV     2   --> B_2  D_4  S_4  
     e(  9 -  9) =     10.15401  eV     1   --> A_1  D_1  S_1  
     e( 10 - 10) =     11.16064  eV     1   --> A_2  D_2  S_2  
     e( 11 - 12) =     13.47514  eV     2   --> B_1  D_3  S_3  
     e( 11 - 12) =     13.47514  eV     2   --> B_2  D_4  S_4  
     e( 13 - 13) =     13.90699  eV     1   --> A_1  D_1  S_1  
     e( 14 - 14) =     17.01203  eV     1   --> A_1  D_1  S_1  
     e( 15 - 15) =     19.17997  eV     1   --> A_1  D_1  S_1  
     e( 16 - 17) =     22.30820  eV     2   --> B_1  D_3  S_3  
     e( 16 - 17) =     22.30820  eV     2   --> B_2  D_4  S_4  
     e( 18 - 18) =     22.43692  eV     1   --> A_1  D_1  S_1  
     e( 19 - 19) =     24.87024  eV     1   --> A_2  D_2  S_2  
     e( 20 - 20) =     29.68272  eV     1   --> A_1  D_1  S_1  
     e( 21 - 21) =     31.08332  eV     1   -->   ?

 **************************************************************************

 **************************************************************************

                    xk=(   0.00000,   0.39598,   0.00000  )

     Band symmetry, C_2v (mm2)  point group:

     e(  1 -  1) =    -67.25482  eV     1   --> A_1  D_1  S_1  
     e(  2 -  2) =    -36.08026  eV     1   --> A_1  D_1  S_1  
     e(  3 -  4) =    -36.07032  eV     2   --> B_1  D_3  S_3  
     e(  3 -  4) =    -36.07032  eV     2   --> B_2  D_4  S_4  
     e(  5 -  5) =     -2.59279  eV     1   --> A_1  D_1  S_1  
     e(  6 -  6) =      5.72010  eV     1   --> A_1  D_1  S_1  
     e(  7 -  8) =      7.36184  eV     2   --> B_1  D_3  S_3  
     e(  7 -  8) =      7.36184  eV     2   --> B_2  D_4  S_4  
     e(  9 -  9) =     10.09465  eV     1   --> A_1  D_1  S_1  
     e( 10 - 10) =     11.20242  eV     1   --> A_2  D_2  S_2  
     e( 11 - 12) =     13.27442  eV     2   --> B_1  D_3  S_3  
     e( 11 - 12) =     13.27442  eV     2   --> B_2  D_4  S_4  
     e( 13 - 13) =     13.65826  eV     1   --> A_1  D_1  S_1  
     e( 14 - 14) =     17.00473  eV     1   --> A_1  D_1  S_1  
     e( 15 - 15) =     19.17087  eV     1   --> A_1  D_1  S_1  
     e( 16 - 16) =     22.64380  eV     1   --> A_1  D_1  S_1  
     e( 17 - 18) =     22.65248  eV     2   --> B_1  D_3  S_3  
     e( 17 - 18) =     22.65248  eV     2   --> B_2  D_4  S_4  
     e( 19 - 19) =     24.85365  eV     1   --> A_2  D_2  S_2  
     e( 20 - 20) =     29.93454  eV     1   --> A_1  D_1  S_1  
     e( 21 - 21) =     31.35257  eV     1   -->   ?

 **************************************************************************

 **************************************************************************

                    xk=(   0.00000,   0.42426,   0.00000  )

     Band symmetry, C_2v (mm2)  point group:

     e(  1 -  1) =    -67.25469  eV     1   --> A_1  D_1  S_1  
     e(  2 -  2) =    -36.08190  eV     1   --> A_1  D_1  S_1  
     e(  3 -  4) =    -36.07101  eV     2   --> B_1  D_3  S_3  
     e(  3 -  4) =    -36.07101  eV     2   --> B_2  D_4  S_4  
     e(  5 -  5) =     -2.48302  eV     1   --> A_1  D_1  S_1  
     e(  6 -  6) =      5.60788  eV     1   --> A_1  D_1  S_1  
     e(  7 -  8) =      7.40675  eV     2   --> B_1  D_3  S_3  
     e(  7 -  8) =      7.40675  eV     2   --> B_2  D_4  S_4  
     e(  9 -  9) =     10.04283  eV     1   --> A_1  D_1  S_1  
     e( 10 - 10) =     11.24180  eV     1   --> A_2  D_2  S_2  
     e( 11 - 12) =     13.08170  eV     2   --> B_1  D_3  S_3  
     e( 11 - 12) =     13.08170  eV     2   --> B_2  D_4  S_4  
     e( 13 - 13) =     13.39387  eV     1   --> A_1  D_1  S_1  
     e( 14 - 14) =     17.01093  eV     1   --> A_1  D_1  S_1  
     e( 15 - 15) =     19.13134  eV     1   --> A_1  D_1  S_1  
     e( 16 - 16) =     22.92315  eV     1   --> A_1  D_1  S_1  
     e( 17 - 18) =     23.01051  eV     2   --> B_1  D_3  S_3  
     e( 17 - 18) =     23.01051  eV     2   --> B_2  D_4  S_4  
     e( 19 - 19) =     24.83643  eV     1   --> A_2  D_2  S_2  
     e( 20 - 20) =     30.18363  eV     1   --> A_1  D_1  S_1  
     e( 21 - 21) =     31.49153  eV     1   -->   ?

 **************************************************************************

 **************************************************************************

                    xk=(   0.00000,   0.45255,   0.00000  )

     Band symmetry, C_2v (mm2)  point group:

     e(  1 -  1) =    -67.25456  eV     1   --> A_1  D_1  S_1  
     e(  2 -  2) =    -36.08354  eV     1   --> A_1  D_1  S_1  
     e(  3 -  4) =    -36.07161  eV     2   --> B_1  D_3  S_3  
     e(  3 -  4) =    -36.07161  eV     2   --> B_2  D_4  S_4  
     e(  5 -  5) =     -2.37506  eV     1   --> A_1  D_1  S_1  
     e(  6 -  6) =      5.50284  eV     1   --> A_1  D_1  S_1  
     e(  7 -  8) =      7.45255  eV     2   --> B_1  D_3  S_3  
     e(  7 -  8) =      7.45255  eV     2   --> B_2  D_4  S_4  
     e(  9 -  9) =      9.99965  eV     1   --> A_1  D_1  S_1  
     e( 10 - 10) =     11.28161  eV     1   --> A_2  D_2  S_2  
     e( 11 - 12) =     12.89873  eV     2   --> B_1  D_3  S_3  
     e( 11 - 12) =     12.89873  eV     2   --> B_2  D_4  S_4  
     e( 13 - 13) =     13.12024  eV     1   --> A_1  D_1  S_1  
     e( 14 - 14) =     17.03041  eV     1   --> A_1  D_1  S_1  
     e( 15 - 15) =     19.07156  eV     1   --> A_1  D_1  S_1  
     e( 16 - 16) =     23.25582  eV     1   --> A_1  D_1  S_1  
     e( 17 - 18) =     23.38161  eV     2   --> B_1  D_3  S_3  
     e( 17 - 18) =     23.38161  eV     2   --> B_2  D_4  S_4  
     e( 19 - 19) =     24.82031  eV     1   --> A_2  D_2  S_2  
     e( 20 - 20) =     30.42987  eV     1   --> A_1  D_1  S_1  
     e( 21 - 21) =     31.43353  eV     1   -->   ?

 **************************************************************************

 **************************************************************************

                    xk=(   0.00000,   0.48083,   0.00000  )

     Band symmetry, C_2v (mm2)  point group:

     e(  1 -  1) =    -67.25443  eV     1   --> A_1  D_1  S_1  
     e(  2 -  2) =    -36.08500  eV     1   --> A_1  D_1  S_1  
     e(  3 -  4) =    -36.07217  eV     2   --> B_1  D_3  S_3  
     e(  3 -  4) =    -36.07217  eV     2   --> B_2  D_4  S_4  
     e(  5 -  5) =     -2.27085  eV     1   --> A_1  D_1  S_1  
     e(  6 -  6) =      5.40594  eV     1   --> A_1  D_1  S_1  
     e(  7 -  8) =      7.49837  eV     2   --> B_1  D_3  S_3  
     e(  7 -  8) =      7.49837  eV     2   --> B_2  D_4  S_4  
     e(  9 -  9) =      9.96715  eV     1   --> A_1  D_1  S_1  
     e( 10 - 10) =     11.31948  eV     1   --> A_2  D_2  S_2  
     e( 11 - 12) =     12.72777  eV     2   --> B_1  D_3  S_3  
     e( 11 - 12) =     12.72777  eV     2   --> B_2  D_4  S_4  
     e( 13 - 13) =     12.84651  eV     1   --> A_1  D_1  S_1  
     e( 14 - 14) =     17.06117  eV     1   --> A_1  D_1  S_1  
     e( 15 - 15) =     18.99931  eV     1   --> A_1  D_1  S_1  
     e( 16 - 16) =     23.62447  eV     1   --> A_1  D_1  S_1  
     e( 17 - 18) =     23.76517  eV     2   --> B_1  D_3  S_3  
     e( 17 - 18) =     23.76517  eV     2   --> B_2  D_4  S_4  
     e( 19 - 19) =     24.80483  eV     1   --> A_2  D_2  S_2  
     e( 20 - 20) =     30.67137  eV     1   --> A_1  D_1  S_1  
     e( 21 - 21) =     31.18466  eV     1   -->   ?

 **************************************************************************

 **************************************************************************

                    xk=(   0.00000,   0.50912,   0.00000  )

     Band symmetry, C_2v (mm2)  point group:

     e(  1 -  1) =    -67.25431  eV     1   --> A_1  D_1  S_1  
     e(  2 -  2) =    -36.08635  eV     1   --> A_1  D_1  S_1  
     e(  3 -  4) =    -36.07268  eV     2   --> B_1  D_3  S_3  
     e(  3 -  4) =    -36.07268  eV     2   --> B_2  D_4  S_4  
     e(  5 -  5) =     -2.17242  eV     1   --> A_1  D_1  S_1  
     e(  6 -  6) =      5.31810  eV     1   --> A_1  D_1  S_1  
     e(  7 -  8) =      7.54320  eV     2   --> B_1  D_3  S_3  
     e(  7 -  8) =      7.54320  eV     2   --> B_2  D_4  S_4  
     e(  9 -  9) =      9.94572  eV     1   --> A_1  D_1  S_1  
     e( 10 - 10) =     11.35476  eV     1   --> A_2  D_2  S_2  
     e( 11 - 12) =     12.57052  eV     2   --> B_1  D_3  S_3  
     e( 11 - 12) =     12.57052  eV     2   --> B_2  D_4  S_4  
     e( 13 - 13) =     12.57910  eV     1   --> A_1  D_1  S_1  
     e( 14 - 14) =     17.10041  eV     1   --> A_1  D_1  S_1  
     e( 15 - 15) =     18.92136  eV     1   --> A_1  D_1  S_1  
     e( 16 - 16) =     24.01258  eV     1   --> A_1  D_1  S_1  
     e( 17 - 18) =     24.16030  eV     2   --> B_1  D_3  S_3  
     e( 17 - 18) =     24.16030  eV     2   --> B_2  D_4  S_4  
     e( 19 - 19) =     24.79026  eV     1   --> A_2  D_2  S_2  
     e( 20 - 21) =     30.81139  eV     2   --> B_1  D_3  S_3  
     e( 20 - 21) =     30.81139  eV     2   --> B_2  D_4  S_4  

 **************************************************************************

 **************************************************************************

                    xk=(   0.00000,   0.53740,   0.00000  )

     Band symmetry, C_2v (mm2)  point group:

     e(  1 -  1) =    -67.25417  eV     1   --> A_1  D_1  S_1  
     e(  2 -  2) =    -36.08752  eV     1   --> A_1  D_1  S_1  
     e(  3 -  4) =    -36.07307  eV     2   --> B_1  D_3  S_3  
     e(  3 -  4) =    -36.07307  eV     2   --> B_2  D_4  S_4  
     e(  5 -  5) =     -2.08174  eV     1   --> A_1  D_1  S_1  
     e(  6 -  6) =      5.24033  eV     1   --> A_1  D_1  S_1  
     e(  7 -  8) =      7.58591  eV     2   --> B_1  D_3  S_3  
     e(  7 -  8) =      7.58591  eV     2   --> B_2  D_4  S_4  
     e(  9 -  9) =      9.93605  eV     1   --> A_1  D_1  S_1  
     e( 10 - 10) =     11.38696  eV     1   --> A_2  D_2  S_2  
     e( 11 - 11) =     12.32507  eV     1   --> A_1  D_1  S_1  
     e( 12 - 13) =     12.42943  eV     2   --> B_1  D_3  S_3  
     e( 12 - 13) =     12.42943  eV     2   --> B_2  D_4  S_4  
     e( 14 - 14) =     17.14600  eV     1   --> A_1  D_1  S_1  
     e( 15 - 15) =     18.84381  eV     1   --> A_1  D_1  S_1  
     e( 16 - 16) =     24.40535  eV     1   --> A_1  D_1  S_1  
     e( 17 - 18) =     24.56593  eV     2   --> B_1  D_3  S_3  
     e( 17 - 18) =     24.56593  eV     2   --> B_2  D_4  S_4  
     e( 19 - 19) =     24.77693  eV     1   --> A_2  D_2  S_2  
     e( 20 - 21) =     30.37397  eV     2   --> B_1  D_3  S_3  
     e( 20 - 21) =     30.37397  eV     2   --> B_2  D_4  S_4  

 **************************************************************************

 **************************************************************************

                    xk=(   0.00000,   0.56569,   0.00000  )

     Band symmetry, C_2v (mm2)  point group:

     e(  1 -  1) =    -67.25408  eV     1   --> A_1  D_1  S_1  
     e(  2 -  2) =    -36.08861  eV     1   --> A_1  D_1  S_1  
     e(  3 -  4) =    -36.07349  eV     2   --> B_1  D_3  S_3  
     e(  3 -  4) =    -36.07349  eV     2   --> B_2  D_4  S_4  
     e(  5 -  5) =     -2.00090  eV     1   --> A_1  D_1  S_1  
     e(  6 -  6) =      5.17301  eV     1   --> A_1  D_1  S_1  
     e(  7 -  8) =      7.62510  eV     2   --> B_1  D_3  S_3  
     e(  7 -  8) =      7.62510  eV     2   --> B_2  D_4  S_4  
     e(  9 -  9) =      9.93693  eV     1   --> A_1  D_1  S_1  
     e( 10 - 10) =     11.41504  eV     1   --> A_2  D_2  S_2  
     e( 11 - 11) =     12.08994  eV     1   --> A_1  D_1  S_1  
     e( 12 - 13) =     12.30497  eV     2   --> B_1  D_3  S_3  
     e( 12 - 13) =     12.30497  eV     2   --> B_2  D_4  S_4  
     e( 14 - 14) =     17.19283  eV     1   --> A_1  D_1  S_1  
     e( 15 - 15) =     18.76893  eV     1   --> A_1  D_1  S_1  
     e( 16 - 16) =     24.76505  eV     1   --> A_2  D_2  S_2  
     e( 17 - 17) =     24.78672  eV     1   --> A_1  D_1  S_1  
     e( 18 - 19) =     24.98011  eV     2   --> B_1  D_3  S_3  
     e( 18 - 19) =     24.98011  eV     2   --> B_2  D_4  S_4  
     e( 20 - 21) =     29.90710  eV     2   --> B_1  D_3  S_3  
     e( 20 - 21) =     29.90710  eV     2   --> B_2  D_4  S_4  

 **************************************************************************

 **************************************************************************

                    xk=(   0.00000,   0.59397,   0.00000  )

     Band symmetry, C_2v (mm2)  point group:

     e(  1 -  1) =    -67.25398  eV     1   --> A_1  D_1  S_1  
     e(  2 -  2) =    -36.08955  eV     1   --> A_1  D_1  S_1  
     e(  3 -  4) =    -36.07375  eV     2   --> B_1  D_3  S_3  
     e(  3 -  4) =    -36.07375  eV     2   --> B_2  D_4  S_4  
     e(  5 -  5) =     -1.93173  eV     1   --> A_1  D_1  S_1  
     e(  6 -  6) =      5.11721  eV     1   --> A_1  D_1  S_1  
     e(  7 -  8) =      7.65964  eV     2   --> B_1  D_3  S_3  
     e(  7 -  8) =      7.65964  eV     2   --> B_2  D_4  S_4  
     e(  9 -  9) =      9.94754  eV     1   --> A_1  D_1  S_1  
     e( 10 - 10) =     11.43956  eV     1   --> A_2  D_2  S_2  
     e( 11 - 11) =     11.88036  eV     1   --> A_1  D_1  S_1  
     e( 12 - 13) =     12.20059  eV     2   --> B_1  D_3  S_3  
     e( 12 - 13) =     12.20059  eV     2   --> B_2  D_4  S_4  
     e( 14 - 14) =     17.23940  eV     1   --> A_1  D_1  S_1  
     e( 15 - 15) =     18.70179  eV     1   --> A_1  D_1  S_1  
     e( 16 - 16) =     24.75494  eV     1   --> A_2  D_2  S_2  
     e( 17 - 17) =     25.14077  eV     1   --> A_1  D_1  S_1  
     e( 18 - 19) =     25.40016  eV     2   --> B_1  D_3  S_3  
     e( 18 - 19) =     25.40016  eV     2   --> B_2  D_4  S_4  
     e( 20 - 21) =     29.43220  eV     2   --> B_1  D_3  S_3  
     e( 20 - 21) =     29.43220  eV     2   --> B_2  D_4  S_4  

 **************************************************************************

 **************************************************************************

                    xk=(   0.00000,   0.62225,   0.00000  )

     Band symmetry, C_2v (mm2)  point group:

     e(  1 -  1) =    -67.25393  eV     1   --> A_1  D_1  S_1  
     e(  2 -  2) =    -36.09024  eV     1   --> A_1  D_1  S_1  
     e(  3 -  4) =    -36.07407  eV     2   --> B_1  D_3  S_3  
     e(  3 -  4) =    -36.07407  eV     2   --> B_2  D_4  S_4  
     e(  5 -  5) =     -1.87594  eV     1   --> A_1  D_1  S_1  
     e(  6 -  6) =      5.07296  eV     1   --> A_1  D_1  S_1  
     e(  7 -  8) =      7.68809  eV     2   --> B_1  D_3  S_3  
     e(  7 -  8) =      7.68809  eV     2   --> B_2  D_4  S_4  
     e(  9 -  9) =      9.96443  eV     1   --> A_1  D_1  S_1  
     e( 10 - 10) =     11.45812  eV     1   --> A_2  D_2  S_2  
     e( 11 - 11) =     11.70544  eV     1   --> A_1  D_1  S_1  
     e( 12 - 13) =     12.11639  eV     2   --> B_1  D_3  S_3  
     e( 12 - 13) =     12.11639  eV     2   --> B_2  D_4  S_4  
     e( 14 - 14) =     17.28002  eV     1   --> A_1  D_1  S_1  
     e( 15 - 15) =     18.64406  eV     1   --> A_1  D_1  S_1  
     e( 16 - 16) =     24.74677  eV     1   --> A_2  D_2  S_2  
     e( 17 - 17) =     25.44871  eV     1   --> A_1  D_1  S_1  
     e( 18 - 19) =     25.82001  eV     2   --> B_1  D_3  S_3  
     e( 18 - 19) =     25.82001  eV     2   --> B_2  D_4  S_4  
     e( 20 - 21) =     28.96330  eV     2   --> B_1  D_3  S_3  
     e( 20 - 21) =     28.96330  eV     2   --> B_2  D_4  S_4  

 **************************************************************************

 **************************************************************************

                    xk=(   0.00000,   0.65054,   0.00000  )

     Band symmetry, C_2v (mm2)  point group:

     e(  1 -  1) =    -67.25387  eV     1   --> A_1  D_1  S_1  
     e(  2 -  2) =    -36.09073  eV     1   --> A_1  D_1  S_1  
     e(  3 -  4) =    -36.07424  eV     2   --> B_1  D_3  S_3  
     e(  3 -  4) =    -36.07424  eV     2   --> B_2  D_4  S_4  
     e(  5 -  5) =     -1.83496  eV     1   --> A_1  D_1  S_1  
     e(  6 -  6) =      5.04117  eV     1   --> A_1  D_1  S_1  
     e(  7 -  8) =      7.70947  eV     2   --> B_1  D_3  S_3  
     e(  7 -  8) =      7.70947  eV     2   --> B_2  D_4  S_4  
     e(  9 -  9) =      9.98316  eV     1   --> A_1  D_1  S_1  
     e( 10 - 10) =     11.47251  eV     1   --> A_2  D_2  S_2  
     e( 11 - 11) =     11.57109  eV     1   --> A_1  D_1  S_1  
     e( 12 - 13) =     12.05579  eV     2   --> B_1  D_3  S_3  
     e( 12 - 13) =     12.05579  eV     2   --> B_2  D_4  S_4  
     e( 14 - 14) =     17.31270  eV     1   --> A_1  D_1  S_1  
     e( 15 - 15) =     18.59997  eV     1   --> A_1  D_1  S_1  
     e( 16 - 16) =     24.74085  eV     1   --> A_2  D_2  S_2  
     e( 17 - 17) =     25.69061  eV     1   --> A_1  D_1  S_1  
     e( 18 - 19) =     26.22590  eV     2   --> B_1  D_3  S_3  
     e( 18 - 19) =     26.22590  eV     2   --> B_2  D_4  S_4  
     e( 20 - 21) =     28.52025  eV     2   --> B_1  D_3  S_3  
     e( 20 - 21) =     28.52025  eV     2   --> B_2  D_4  S_4  

 **************************************************************************

 **************************************************************************

                    xk=(   0.00000,   0.67882,   0.00000  )

     Band symmetry, C_2v (mm2)  point group:

     e(  1 -  1) =    -67.25381  eV     1   --> A_1  D_1  S_1  
     e(  2 -  2) =    -36.09089  eV     1   --> A_1  D_1  S_1  
     e(  3 -  4) =    -36.07433  eV     2   --> B_1  D_3  S_3  
     e(  3 -  4) =    -36.07433  eV     2   --> B_2  D_4  S_4  
     e(  5 -  5) =     -1.80992  eV     1   --> A_1  D_1  S_1  
     e(  6 -  6) =      5.02195  eV     1   --> A_1  D_1  S_1  
     e(  7 -  8) =      7.72275  eV     2   --> B_1  D_3  S_3  
     e(  7 -  8) =      7.72275  eV     2   --> B_2  D_4  S_4  
     e(  9 -  9) =      9.99810  eV     1   --> A_1  D_1  S_1  
     e( 10 - 10) =     11.48117  eV     1   --> A_2  D_2  S_2  
     e( 11 - 11) =     11.48776  eV     1   --> A_1  D_1  S_1  
     e( 12 - 13) =     12.01974  eV     2   --> B_1  D_3  S_3  
     e( 12 - 13) =     12.01974  eV     2   --> B_2  D_4  S_4  
     e( 14 - 14) =     17.33406  eV     1   --> A_1  D_1  S_1  
     e( 15 - 15) =     18.57225  eV     1   --> A_1  D_1  S_1  
     e( 16 - 16) =     24.73720  eV     1   --> A_2  D_2  S_2  
     e( 17 - 17) =     25.84671  eV     1   --> A_1  D_1  S_1  
     e( 18 - 19) =     26.57540  eV     2   --> B_1  D_3  S_3  
     e( 18 - 19) =     26.57540  eV     2   --> B_2  D_4  S_4  
     e( 20 - 21) =     28.14819  eV     2   --> B_1  D_3  S_3  
     e( 20 - 21) =     28.14819  eV     2   --> B_2  D_4  S_4  

 **************************************************************************

 **************************************************************************

                    xk=(   0.00000,   0.70711,   0.00000  )

     point group D_2d (-42m)
     there are  5 classes
     the character table:

       E     2S4   C2    2C2'  2s_d 
A_1    1.00  1.00  1.00  1.00  1.00
A_2    1.00  1.00  1.00 -1.00 -1.00
B_1    1.00 -1.00  1.00  1.00 -1.00
B_2    1.00 -1.00  1.00 -1.00  1.00
E      2.00  0.00 -2.00  0.00  0.00

     the symmetry operations in each class and the name of the first element:

     E        1
                                                                 
     2S4      7    8
                                                                 
     C2       3
                                                                 
     2C2'     2    4
                                                                 
     2s_d     5    6
                                                                 

     Band symmetry, D_2d (-42m) point group:

     e(  1 -  1) =    -67.25380  eV     1   --> B_2  X_3  W_2  
     e(  2 -  2) =    -36.09100  eV     1   --> A_1  X_1  W_1  
     e(  3 -  4) =    -36.07437  eV     2   --> E    X_5  W_3  
     e(  5 -  5) =     -1.80150  eV     1   --> A_1  X_1  W_1  
     e(  6 -  6) =      5.01551  eV     1   --> B_2  X_3  W_2  
     e(  7 -  8) =      7.72722  eV     2   --> E    X_5  W_3  
     e(  9 -  9) =     10.00375  eV     1   --> A_1  X_1  W_1  
     e( 10 - 10) =     11.45845  eV     1   --> B_2  X_3  W_2  
     e( 11 - 11) =     11.48397  eV     1   --> A_2  X_4  W_2' 
     e( 12 - 13) =     12.00726  eV     2   --> E    X_5  W_3  
     e( 14 - 14) =     17.34142  eV     1   --> A_1  X_1  W_1  
     e( 15 - 15) =     18.56265  eV     1   --> B_2  X_3  W_2  
     e( 16 - 16) =     24.73598  eV     1   --> B_1  X_2  W_1' 
     e( 17 - 17) =     25.90051  eV     1   --> B_2  X_3  W_2  
     e( 18 - 19) =     26.73748  eV     2   --> E    X_5  W_3  
     e( 20 - 21) =     27.97817  eV     2   --> E    X_5  W_3  

 **************************************************************************

 **************************************************************************

                    xk=(   0.01768,   0.70711,   0.01768  )

     point group C_s (m)    
     there are  2 classes
     the character table:

       E     s    
A'     1.00  1.00
A''    1.00 -1.00

     the symmetry operations in each class and the name of the first element:

     E        1
                                                                 
     s        2
                                                                 

     Band symmetry, C_s (m)     point group:

     e(  1 -  1) =    -67.25380  eV     1   --> A'             
     e(  2 -  2) =    -36.09095  eV     1   --> A'             
     e(  3 -  4) =    -36.07443  eV     2   --> A'             
     e(  3 -  4) =    -36.07443  eV     2   --> A''            
     e(  5 -  5) =     -1.80146  eV     1   --> A'             
     e(  6 -  6) =      5.02157  eV     1   --> A'             
     e(  7 -  7) =      7.71596  eV     1   --> A'             
     e(  8 -  8) =      7.72603  eV     1   --> A''            
     e(  9 -  9) =     10.00232  eV     1   --> A'             
     e( 10 - 10) =     11.43657  eV     1   --> A'             
     e( 11 - 11) =     11.47573  eV     1   --> A''            
     e( 12 - 12) =     12.01939  eV     1   --> A''            
     e( 13 - 13) =     12.03308  eV     1   --> A'             
     e( 14 - 14) =     17.35290  eV     1   --> A'             
     e( 15 - 15) =     18.57781  eV     1   --> A'             
     e( 16 - 16) =     24.68517  eV     1   --> A''            
     e( 17 - 17) =     25.79153  eV     1   --> A'             
     e( 18 - 18) =     26.74858  eV     1   --> A''            
     e( 19 - 19) =     26.83554  eV     1   --> A'             
     e( 20 - 20) =     27.95165  eV     1   --> A'             
     e( 21 - 21) =     28.02097  eV     1   --> A''            

 **************************************************************************

 **************************************************************************

                    xk=(   0.03536,   0.70711,   0.03536  )

     Band symmetry, C_s (m)     point group:

     e(  1 -  1) =    -67.25381  eV     1   --> A'             
     e(  2 -  2) =    -36.09082  eV     1   --> A'             
     e(  3 -  3) =    -36.07468  eV     1   --> A'             
     e(  4 -  4) =    -36.07429  eV     1   --> A''            
     e(  5 -  5) =     -1.80141  eV     1   --> A'             
     e(  6 -  6) =      5.03959  eV     1   --> A'             
     e(  7 -  7) =      7.68215  eV     1   --> A'             
     e(  8 -  8) =      7.72248  eV     1   --> A''            
     e(  9 -  9) =      9.99778  eV     1   --> A'             
     e( 10 - 10) =     11.38462  eV     1   --> A'             
     e( 11 - 11) =     11.45248  eV     1   --> A''            
     e( 12 - 12) =     12.05385  eV     1   --> A''            
     e( 13 - 13) =     12.09677  eV     1   --> A'             
     e( 14 - 14) =     17.38517  eV     1   --> A'             
     e( 15 - 15) =     18.62390  eV     1   --> A'             
     e( 16 - 16) =     24.54565  eV     1   --> A''            
     e( 17 - 17) =     25.55114  eV     1   --> A'             
     e( 18 - 18) =     26.76779  eV     1   --> A''            
     e( 19 - 19) =     27.03099  eV     1   --> A'             
     e( 20 - 20) =     27.88807  eV     1   --> A'             
     e( 21 - 21) =     28.15046  eV     1   --> A''            

 **************************************************************************

 **************************************************************************

                    xk=(   0.05303,   0.70711,   0.05303  )

     Band symmetry, C_s (m)     point group:

     e(  1 -  1) =    -67.25383  eV     1   --> A'             
     e(  2 -  2) =    -36.09066  eV     1   --> A'             
     e(  3 -  3) =    -36.07506  eV     1   --> A'             
     e(  4 -  4) =    -36.07422  eV     1   --> A''            
     e(  5 -  5) =     -1.80150  eV     1   --> A'             
     e(  6 -  6) =      5.06946  eV     1   --> A'             
     e(  7 -  7) =      7.62614  eV     1   --> A'             
     e(  8 -  8) =      7.71659  eV     1   --> A''            
     e(  9 -  9) =      9.99075  eV     1   --> A'             
     e( 10 - 10) =     11.32539  eV     1   --> A'             
     e( 11 - 11) =     11.41808  eV     1   --> A''            
     e( 12 - 12) =     12.10608  eV     1   --> A''            
     e( 13 - 13) =     12.17544  eV     1   --> A'             
     e( 14 - 14) =     17.43459  eV     1   --> A'             
     e( 15 - 15) =     18.70450  eV     1   --> A'             
     e( 16 - 16) =     24.34495  eV     1   --> A''            
     e( 17 - 17) =     25.26577  eV     1   --> A'             
     e( 18 - 18) =     26.76970  eV     1   --> A''            
     e( 19 - 19) =     27.17985  eV     1   --> A'             
     e( 20 - 20) =     27.85596  eV     1   --> A'             
     e( 21 - 21) =     28.36406  eV     1   --> A''            

 **************************************************************************

 **************************************************************************

                    xk=(   0.07071,   0.70711,   0.07071  )

     Band symmetry, C_s (m)     point group:

     e(  1 -  1) =    -67.25383  eV     1   --> A'             
     e(  2 -  2) =    -36.09035  eV     1   --> A'             
     e(  3 -  3) =    -36.07552  eV     1   --> A'             
     e(  4 -  4) =    -36.07406  eV     1   --> A''            
     e(  5 -  5) =     -1.80196  eV     1   --> A'             
     e(  6 -  6) =      5.11098  eV     1   --> A'             
     e(  7 -  7) =      7.54903  eV     1   --> A'             
     e(  8 -  8) =      7.70865  eV     1   --> A''            
     e(  9 -  9) =      9.98164  eV     1   --> A'             
     e( 10 - 10) =     11.27594  eV     1   --> A'             
     e( 11 - 11) =     11.37770  eV     1   --> A''            
     e( 12 - 12) =     12.17344  eV     1   --> A''            
     e( 13 - 13) =     12.25510  eV     1   --> A'             
     e( 14 - 14) =     17.49386  eV     1   --> A'             
     e( 15 - 15) =     18.82273  eV     1   --> A'             
     e( 16 - 16) =     24.10903  eV     1   --> A''            
     e( 17 - 17) =     24.96625  eV     1   --> A'             
     e( 18 - 18) =     26.74043  eV     1   --> A''            
     e( 19 - 19) =     27.15213  eV     1   --> A'             
     e( 20 - 20) =     27.97114  eV     1   --> A'             
     e( 21 - 21) =     28.65055  eV     1   --> A''            

 **************************************************************************

 **************************************************************************

                    xk=(   0.08839,   0.70711,   0.08839  )

     Band symmetry, C_s (m)     point group:

     e(  1 -  1) =    -67.25382  eV     1   --> A'             
     e(  2 -  2) =    -36.08994  eV     1   --> A'             
     e(  3 -  3) =    -36.07600  eV     1   --> A'             
     e(  4 -  4) =    -36.07382  eV     1   --> A''            
     e(  5 -  5) =     -1.80314  eV     1   --> A'             
     e(  6 -  6) =      5.16374  eV     1   --> A'             
     e(  7 -  7) =      7.45222  eV     1   --> A'             
     e(  8 -  8) =      7.69882  eV     1   --> A''            
     e(  9 -  9) =      9.97259  eV     1   --> A'             
     e( 10 - 10) =     11.24417  eV     1   --> A'             
     e( 11 - 11) =     11.33354  eV     1   --> A''            
     e( 12 - 12) =     12.25281  eV     1   --> A''            
     e( 13 - 13) =     12.32689  eV     1   --> A'             
     e( 14 - 14) =     17.55749  eV     1   --> A'             
     e( 15 - 15) =     18.98171  eV     1   --> A'             
     e( 16 - 16) =     23.85621  eV     1   --> A''            
     e( 17 - 17) =     24.66394  eV     1   --> A'             
     e( 18 - 18) =     26.67836  eV     1   --> A''            
     e( 19 - 19) =     26.97547  eV     1   --> A'             
     e( 20 - 20) =     28.20973  eV     1   --> A'             
     e( 21 - 21) =     28.99296  eV     1   --> A''            

 **************************************************************************

 **************************************************************************

                    xk=(   0.10607,   0.70711,   0.10607  )

     Band symmetry, C_s (m)     point group:

     e(  1 -  1) =    -67.25385  eV     1   --> A'             
     e(  2 -  2) =    -36.08957  eV     1   --> A'             
     e(  3 -  3) =    -36.07663  eV     1   --> A'             
     e(  4 -  4) =    -36.07369  eV     1   --> A''            
     e(  5 -  5) =     -1.80552  eV     1   --> A'             
     e(  6 -  6) =      5.22677  eV     1   --> A'             
     e(  7 -  7) =      7.33790  eV     1   --> A'             
     e(  8 -  8) =      7.68711  eV     1   --> A''            
     e(  9 -  9) =      9.96552  eV     1   --> A'             
     e( 10 - 10) =     11.23193  eV     1   --> A'             
     e( 11 - 11) =     11.28490  eV     1   --> A''            
     e( 12 - 12) =     12.34023  eV     1   --> A''            
     e( 13 - 13) =     12.38502  eV     1   --> A'             
     e( 14 - 14) =     17.61896  eV     1   --> A'             
     e( 15 - 15) =     19.17909  eV     1   --> A'             
     e( 16 - 16) =     23.59803  eV     1   --> A''            
     e( 17 - 17) =     24.36334  eV     1   --> A'             
     e( 18 - 18) =     26.58626  eV     1   --> A''            
     e( 19 - 19) =     26.73575  eV     1   --> A'             
     e( 20 - 20) =     28.49331  eV     1   --> A'             
     e( 21 - 21) =     29.37548  eV     1   --> A''            

 **************************************************************************

 **************************************************************************

                    xk=(   0.12374,   0.70711,   0.12374  )

     Band symmetry, C_s (m)     point group:

     e(  1 -  1) =    -67.25385  eV     1   --> A'             
     e(  2 -  2) =    -36.08902  eV     1   --> A'             
     e(  3 -  3) =    -36.07728  eV     1   --> A'             
     e(  4 -  4) =    -36.07342  eV     1   --> A''            
     e(  5 -  5) =     -1.80957  eV     1   --> A'             
     e(  6 -  6) =      5.29974  eV     1   --> A'             
     e(  7 -  7) =      7.20942  eV     1   --> A'             
     e(  8 -  8) =      7.67403  eV     1   --> A''            
     e(  9 -  9) =      9.96416  eV     1   --> A'             
     e( 10 - 10) =     11.23551  eV     1   --> A''            
     e( 11 - 11) =     11.24092  eV     1   --> A'             
     e( 12 - 12) =     12.42975  eV     1   --> A'             
     e( 13 - 13) =     12.43752  eV     1   --> A''            
     e( 14 - 14) =     17.67791  eV     1   --> A'             
     e( 15 - 15) =     19.41133  eV     1   --> A'             
     e( 16 - 16) =     23.34222  eV     1   --> A''            
     e( 17 - 17) =     24.06967  eV     1   --> A'             
     e( 18 - 18) =     26.46911  eV     1   --> A''            
     e( 19 - 19) =     26.47289  eV     1   --> A'             
     e( 20 - 20) =     28.79237  eV     1   --> A'             
     e( 21 - 21) =     29.78783  eV     1   --> A''            

 **************************************************************************

 **************************************************************************

                    xk=(   0.14142,   0.70711,   0.14142  )

     Band symmetry, C_s (m)     point group:

     e(  1 -  1) =    -67.25388  eV     1   --> A'             
     e(  2 -  2) =    -36.08851  eV     1   --> A'             
     e(  3 -  3) =    -36.07800  eV     1   --> A'             
     e(  4 -  4) =    -36.07317  eV     1   --> A''            
     e(  5 -  5) =     -1.81592  eV     1   --> A'             
     e(  6 -  6) =      5.38151  eV     1   --> A'             
     e(  7 -  7) =      7.07029  eV     1   --> A'             
     e(  8 -  8) =      7.65959  eV     1   --> A''            
     e(  9 -  9) =      9.97095  eV     1   --> A'             
     e( 10 - 10) =     11.18421  eV     1   --> A''            
     e( 11 - 11) =     11.26733  eV     1   --> A'             
     e( 12 - 12) =     12.45931  eV     1   --> A'             
     e( 13 - 13) =     12.54157  eV     1   --> A''            
     e( 14 - 14) =     17.73285  eV     1   --> A'             
     e( 15 - 15) =     19.66886  eV     1   --> A'             
     e( 16 - 16) =     23.09329  eV     1   --> A''            
     e( 17 - 17) =     23.78480  eV     1   --> A'             
     e( 18 - 18) =     26.20625  eV     1   --> A'             
     e( 19 - 19) =     26.32937  eV     1   --> A''            
     e( 20 - 20) =     29.09559  eV     1   --> A'             
     e( 21 - 21) =     30.22106  eV     1   --> A''            

 **************************************************************************

 **************************************************************************

                    xk=(   0.15910,   0.70711,   0.15910  )

     Band symmetry, C_s (m)     point group:

     e(  1 -  1) =    -67.25389  eV     1   --> A'             
     e(  2 -  2) =    -36.08791  eV     1   --> A'             
     e(  3 -  3) =    -36.07867  eV     1   --> A'             
     e(  4 -  4) =    -36.07287  eV     1   --> A''            
     e(  5 -  5) =     -1.82517  eV     1   --> A'             
     e(  6 -  6) =      5.47120  eV     1   --> A'             
     e(  7 -  7) =      6.92498  eV     1   --> A'             
     e(  8 -  8) =      7.64414  eV     1   --> A''            
     e(  9 -  9) =      9.98878  eV     1   --> A'             
     e( 10 - 10) =     11.13252  eV     1   --> A''            
     e( 11 - 11) =     11.30955  eV     1   --> A'             
     e( 12 - 12) =     12.47595  eV     1   --> A'             
     e( 13 - 13) =     12.65288  eV     1   --> A''            
     e( 14 - 14) =     17.78615  eV     1   --> A'             
     e( 15 - 15) =     19.93942  eV     1   --> A'             
     e( 16 - 16) =     22.85452  eV     1   --> A''            
     e( 17 - 17) =     23.51228  eV     1   --> A'             
     e( 18 - 18) =     25.95104  eV     1   --> A'             
     e( 19 - 19) =     26.17049  eV     1   --> A''            
     e( 20 - 20) =     29.39674  eV     1   --> A'             
     e( 21 - 21) =     30.66077  eV     1   --> A'             

 **************************************************************************

 **************************************************************************

                    xk=(   0.17678,   0.70711,   0.17678  )

     Band symmetry, C_s (m)     point group:

     e(  1 -  1) =    -67.25389  eV     1   --> A'             
     e(  2 -  2) =    -36.08726  eV     1   --> A'             
     e(  3 -  3) =    -36.07927  eV     1   --> A'             
     e(  4 -  4) =    -36.07251  eV     1   --> A''            
     e(  5 -  5) =     -1.83802  eV     1   --> A'             
     e(  6 -  6) =      5.56745  eV     1   --> A'             
     e(  7 -  7) =      6.77787  eV     1   --> A'             
     e(  8 -  8) =      7.62791  eV     1   --> A''            
     e(  9 -  9) =     10.01950  eV     1   --> A'             
     e( 10 - 10) =     11.08070  eV     1   --> A''            
     e( 11 - 11) =     11.36388  eV     1   --> A'             
     e( 12 - 12) =     12.48133  eV     1   --> A'             
     e( 13 - 13) =     12.77086  eV     1   --> A''            
     e( 14 - 14) =     17.83917  eV     1   --> A'             
     e( 15 - 15) =     20.20653  eV     1   --> A'             
     e( 16 - 16) =     22.62800  eV     1   --> A''            
     e( 17 - 17) =     23.25448  eV     1   --> A'             
     e( 18 - 18) =     25.72170  eV     1   --> A'             
     e( 19 - 19) =     25.99513  eV     1   --> A''            
     e( 20 - 20) =     29.68558  eV     1   --> A'             
     e( 21 - 21) =     30.47926  eV     1   --> A'             

 **************************************************************************

 **************************************************************************

                    xk=(   0.17088,   0.68354,   0.17088  )

     Band symmetry, C_s (m)     point group:

     e(  1 -  1) =    -67.25390  eV     1   --> A'             
     e(  2 -  2) =    -36.08753  eV     1   --> A'             
     e(  3 -  3) =    -36.07900  eV     1   --> A'             
     e(  4 -  4) =    -36.07262  eV     1   --> A''            
     e(  5 -  5) =     -1.83724  eV     1   --> A'             
     e(  6 -  6) =      5.53288  eV     1   --> A'             
     e(  7 -  7) =      6.82996  eV     1   --> A'             
     e(  8 -  8) =      7.63079  eV     1   --> A''            
     e(  9 -  9) =     10.01564  eV     1   --> A'             
     e( 10 - 10) =     11.10106  eV     1   --> A''            
     e( 11 - 11) =     11.34077  eV     1   --> A'             
     e( 12 - 12) =     12.49429  eV     1   --> A'             
     e( 13 - 13) =     12.73267  eV     1   --> A''            
     e( 14 - 14) =     17.82315  eV     1   --> A'             
     e( 15 - 15) =     20.11685  eV     1   --> A'             
     e( 16 - 16) =     22.68837  eV     1   --> A''            
     e( 17 - 17) =     23.30146  eV     1   --> A'             
     e( 18 - 18) =     25.82408  eV     1   --> A'             
     e( 19 - 19) =     26.06341  eV     1   --> A''            
     e( 20 - 20) =     29.49801  eV     1   --> A'             
     e( 21 - 21) =     30.60838  eV     1   --> A'             

 **************************************************************************

 **************************************************************************

                    xk=(   0.16499,   0.65997,   0.16499  )

     Band symmetry, C_s (m)     point group:

     e(  1 -  1) =    -67.25391  eV     1   --> A'             
     e(  2 -  2) =    -36.08771  eV     1   --> A'             
     e(  3 -  3) =    -36.07857  eV     1   --> A'             
     e(  4 -  4) =    -36.07267  eV     1   --> A''            
     e(  5 -  5) =     -1.84521  eV     1   --> A'             
     e(  6 -  6) =      5.49794  eV     1   --> A'             
     e(  7 -  7) =      6.88586  eV     1   --> A'             
     e(  8 -  8) =      7.62852  eV     1   --> A''            
     e(  9 -  9) =     10.02840  eV     1   --> A'             
     e( 10 - 10) =     11.12738  eV     1   --> A''            
     e( 11 - 11) =     11.31551  eV     1   --> A'             
     e( 12 - 12) =     12.53288  eV     1   --> A'             
     e( 13 - 13) =     12.70068  eV     1   --> A''            
     e( 14 - 14) =     17.81047  eV     1   --> A'             
     e( 15 - 15) =     20.02364  eV     1   --> A'             
     e( 16 - 16) =     22.72406  eV     1   --> A''            
     e( 17 - 17) =     23.27667  eV     1   --> A'             
     e( 18 - 18) =     25.97887  eV     1   --> A'             
     e( 19 - 19) =     26.13993  eV     1   --> A''            
     e( 20 - 20) =     29.22977  eV     1   --> A'             
     e( 21 - 21) =     30.77411  eV     1   --> A'             

 **************************************************************************

 **************************************************************************

                    xk=(   0.15910,   0.63640,   0.15910  )

     Band symmetry, C_s (m)     point group:

     e(  1 -  1) =    -67.25394  eV     1   --> A'             
     e(  2 -  2) =    -36.08790  eV     1   --> A'             
     e(  3 -  3) =    -36.07802  eV     1   --> A'             
     e(  4 -  4) =    -36.07269  eV     1   --> A''            
     e(  5 -  5) =     -1.86243  eV     1   --> A'             
     e(  6 -  6) =      5.46613  eV     1   --> A'             
     e(  7 -  7) =      6.94193  eV     1   --> A'             
     e(  8 -  8) =      7.62109  eV     1   --> A''            
     e(  9 -  9) =     10.05490  eV     1   --> A'             
     e( 10 - 10) =     11.15737  eV     1   --> A''            
     e( 11 - 11) =     11.29418  eV     1   --> A'             
     e( 12 - 12) =     12.59369  eV     1   --> A'             
     e( 13 - 13) =     12.67616  eV     1   --> A''            
     e( 14 - 14) =     17.80029  eV     1   --> A'             
     e( 15 - 15) =     19.93116  eV     1   --> A'             
     e( 16 - 16) =     22.73723  eV     1   --> A''            
     e( 17 - 17) =     23.18995  eV     1   --> A'             
     e( 18 - 18) =     26.14860  eV     1   --> A'             
     e( 19 - 19) =     26.21137  eV     1   --> A''            
     e( 20 - 20) =     28.98008  eV     1   --> A'             
     e( 21 - 21) =     30.72476  eV     1   --> A''            

 **************************************************************************

 **************************************************************************

                    xk=(   0.15321,   0.61283,   0.15321  )

     Band symmetry, C_s (m)     point group:

     e(  1 -  1) =    -67.25396  eV     1   --> A'             
     e(  2 -  2) =    -36.08794  eV     1   --> A'             
     e(  3 -  3) =    -36.07737  eV     1   --> A'             
     e(  4 -  4) =    -36.07261  eV     1   --> A''            
     e(  5 -  5) =     -1.88919  eV     1   --> A'             
     e(  6 -  6) =      5.44043  eV     1   --> A'             
     e(  7 -  7) =      6.99566  eV     1   --> A'             
     e(  8 -  8) =      7.60886  eV     1   --> A''            
     e(  9 -  9) =     10.09081  eV     1   --> A'             
     e( 10 - 10) =     11.18942  eV     1   --> A''            
     e( 11 - 11) =     11.28591  eV     1   --> A'             
     e( 12 - 12) =     12.66223  eV     1   --> A''            
     e( 13 - 13) =     12.67416  eV     1   --> A'             
     e( 14 - 14) =     17.79237  eV     1   --> A'             
     e( 15 - 15) =     19.84252  eV     1   --> A'             
     e( 16 - 16) =     22.73092  eV     1   --> A''            
     e( 17 - 17) =     23.05734  eV     1   --> A'             
     e( 18 - 18) =     26.26371  eV     1   --> A''            
     e( 19 - 19) =     26.27518  eV     1   --> A'             
     e( 20 - 20) =     28.81433  eV     1   --> A'             
     e( 21 - 21) =     30.66047  eV     1   --> A''            

 **************************************************************************

 **************************************************************************

                    xk=(   0.14731,   0.58926,   0.14731  )

     Band symmetry, C_s (m)     point group:

     e(  1 -  1) =    -67.25400  eV     1   --> A'             
     e(  2 -  2) =    -36.08789  eV     1   --> A'             
     e(  3 -  3) =    -36.07668  eV     1   --> A'             
     e(  4 -  4) =    -36.07249  eV     1   --> A''            
     e(  5 -  5) =     -1.92558  eV     1   --> A'             
     e(  6 -  6) =      5.42289  eV     1   --> A'             
     e(  7 -  7) =      7.04515  eV     1   --> A'             
     e(  8 -  8) =      7.59223  eV     1   --> A''            
     e(  9 -  9) =     10.12974  eV     1   --> A'             
     e( 10 - 10) =     11.22002  eV     1   --> A''            
     e( 11 - 11) =     11.29869  eV     1   --> A'             
     e( 12 - 12) =     12.66140  eV     1   --> A''            
     e( 13 - 13) =     12.77031  eV     1   --> A'             
     e( 14 - 14) =     17.78500  eV     1   --> A'             
     e( 15 - 15) =     19.76008  eV     1   --> A'             
     e( 16 - 16) =     22.70804  eV     1   --> A''            
     e( 17 - 17) =     22.89197  eV     1   --> A'             
     e( 18 - 18) =     26.28345  eV     1   --> A''            
     e( 19 - 19) =     26.29545  eV     1   --> A'             
     e( 20 - 20) =     28.78920  eV     1   --> A'             
     e( 21 - 21) =     30.65660  eV     1   --> A''            

 **************************************************************************

 **************************************************************************

                    xk=(   0.14142,   0.56569,   0.14142  )

     Band symmetry, C_s (m)     point group:

     e(  1 -  1) =    -67.25407  eV     1   --> A'             
     e(  2 -  2) =    -36.08776  eV     1   --> A'             
     e(  3 -  3) =    -36.07599  eV     1   --> A'             
     e(  4 -  4) =    -36.07240  eV     1   --> A''            
     e(  5 -  5) =     -1.97145  eV     1   --> A'             
     e(  6 -  6) =      5.41511  eV     1   --> A'             
     e(  7 -  7) =      7.08929  eV     1   --> A'             
     e(  8 -  8) =      7.57156  eV     1   --> A''            
     e(  9 -  9) =     10.16503  eV     1   --> A'             
     e( 10 - 10) =     11.24596  eV     1   --> A''            
     e( 11 - 11) =     11.34034  eV     1   --> A'             
     e( 12 - 12) =     12.67555  eV     1   --> A''            
     e( 13 - 13) =     12.87973  eV     1   --> A'             
     e( 14 - 14) =     17.77708  eV     1   --> A'             
     e( 15 - 15) =     19.68575  eV     1   --> A'             
     e( 16 - 16) =     22.67071  eV     1   --> A''            
     e( 17 - 17) =     22.70392  eV     1   --> A'             
     e( 18 - 18) =     26.18115  eV     1   --> A'             
     e( 19 - 19) =     26.26155  eV     1   --> A''            
     e( 20 - 20) =     28.92312  eV     1   --> A'             
     e( 21 - 21) =     30.72206  eV     1   --> A''            

 **************************************************************************

 **************************************************************************

                    xk=(   0.13553,   0.54212,   0.13553  )

     Band symmetry, C_s (m)     point group:

     e(  1 -  1) =    -67.25413  eV     1   --> A'             
     e(  2 -  2) =    -36.08740  eV     1   --> A'             
     e(  3 -  3) =    -36.07522  eV     1   --> A'             
     e(  4 -  4) =    -36.07220  eV     1   --> A''            
     e(  5 -  5) =     -2.02639  eV     1   --> A'             
     e(  6 -  6) =      5.41835  eV     1   --> A'             
     e(  7 -  7) =      7.12767  eV     1   --> A'             
     e(  8 -  8) =      7.54761  eV     1   --> A''            
     e(  9 -  9) =     10.19272  eV     1   --> A'             
     e( 10 - 10) =     11.26527  eV     1   --> A''            
     e( 11 - 11) =     11.41687  eV     1   --> A'             
     e( 12 - 12) =     12.70853  eV     1   --> A''            
     e( 13 - 13) =     13.00184  eV     1   --> A'             
     e( 14 - 14) =     17.76883  eV     1   --> A'             
     e( 15 - 15) =     19.62183  eV     1   --> A'             
     e( 16 - 16) =     22.50136  eV     1   --> A'             
     e( 17 - 17) =     22.62092  eV     1   --> A''            
     e( 18 - 18) =     25.95756  eV     1   --> A'             
     e( 19 - 19) =     26.19655  eV     1   --> A''            
     e( 20 - 20) =     29.17665  eV     1   --> A'             
     e( 21 - 21) =     30.61502  eV     1   --> A'             

 **************************************************************************

 **************************************************************************

                    xk=(   0.12964,   0.51854,   0.12964  )

     Band symmetry, C_s (m)     point group:

     e(  1 -  1) =    -67.25420  eV     1   --> A'             
     e(  2 -  2) =    -36.08692  eV     1   --> A'             
     e(  3 -  3) =    -36.07445  eV     1   --> A'             
     e(  4 -  4) =    -36.07193  eV     1   --> A''            
     e(  5 -  5) =     -2.08977  eV     1   --> A'             
     e(  6 -  6) =      5.43318  eV     1   --> A'             
     e(  7 -  7) =      7.15993  eV     1   --> A'             
     e(  8 -  8) =      7.52090  eV     1   --> A''            
     e(  9 -  9) =     10.21095  eV     1   --> A'             
     e( 10 - 10) =     11.27551  eV     1   --> A''            
     e( 11 - 11) =     11.52823  eV     1   --> A'             
     e( 12 - 12) =     12.76146  eV     1   --> A''            
     e( 13 - 13) =     13.13361  eV     1   --> A'             
     e( 14 - 14) =     17.75914  eV     1   --> A'             
     e( 15 - 15) =     19.56902  eV     1   --> A'             
     e( 16 - 16) =     22.28913  eV     1   --> A'             
     e( 17 - 17) =     22.55949  eV     1   --> A''            
     e( 18 - 18) =     25.66753  eV     1   --> A'             
     e( 19 - 19) =     26.09306  eV     1   --> A''            
     e( 20 - 20) =     29.46929  eV     1   --> A'             
     e( 21 - 21) =     30.48852  eV     1   --> A'             

 **************************************************************************

 **************************************************************************

                    xk=(   0.12374,   0.49497,   0.12374  )

     Band symmetry, C_s (m)     point group:

     e(  1 -  1) =    -67.25430  eV     1   --> A'             
     e(  2 -  2) =    -36.08633  eV     1   --> A'             
     e(  3 -  3) =    -36.07367  eV     1   --> A'             
     e(  4 -  4) =    -36.07167  eV     1   --> A''            
     e(  5 -  5) =     -2.16085  eV     1   --> A'             
     e(  6 -  6) =      5.45975  eV     1   --> A'             
     e(  7 -  7) =      7.18604  eV     1   --> A'             
     e(  8 -  8) =      7.49200  eV     1   --> A''            
     e(  9 -  9) =     10.22158  eV     1   --> A'             
     e( 10 - 10) =     11.27480  eV     1   --> A''            
     e( 11 - 11) =     11.67089  eV     1   --> A'             
     e( 12 - 12) =     12.83447  eV     1   --> A''            
     e( 13 - 13) =     13.27415  eV     1   --> A'             
     e( 14 - 14) =     17.74662  eV     1   --> A'             
     e( 15 - 15) =     19.52762  eV     1   --> A'             
     e( 16 - 16) =     22.07166  eV     1   --> A'             
     e( 17 - 17) =     22.48639  eV     1   --> A''            
     e( 18 - 18) =     25.34409  eV     1   --> A'             
     e( 19 - 19) =     25.96035  eV     1   --> A''            
     e( 20 - 20) =     29.65665  eV     1   --> A'             
     e( 21 - 21) =     30.50180  eV     1   --> A'             

 **************************************************************************

 **************************************************************************

                    xk=(   0.11785,   0.47140,   0.11785  )

     Band symmetry, C_s (m)     point group:

     e(  1 -  1) =    -67.25439  eV     1   --> A'             
     e(  2 -  2) =    -36.08553  eV     1   --> A'             
     e(  3 -  3) =    -36.07292  eV     1   --> A'             
     e(  4 -  4) =    -36.07136  eV     1   --> A''            
     e(  5 -  5) =     -2.23861  eV     1   --> A'             
     e(  6 -  6) =      5.49813  eV     1   --> A'             
     e(  7 -  7) =      7.20606  eV     1   --> A'             
     e(  8 -  8) =      7.46148  eV     1   --> A''            
     e(  9 -  9) =     10.22824  eV     1   --> A'             
     e( 10 - 10) =     11.26525  eV     1   --> A''            
     e( 11 - 11) =     11.84072  eV     1   --> A'             
     e( 12 - 12) =     12.92691  eV     1   --> A''            
     e( 13 - 13) =     13.42162  eV     1   --> A'             
     e( 14 - 14) =     17.73126  eV     1   --> A'             
     e( 15 - 15) =     19.49681  eV     1   --> A'             
     e( 16 - 16) =     21.85381  eV     1   --> A'             
     e( 17 - 17) =     22.40134  eV     1   --> A''            
     e( 18 - 18) =     25.00796  eV     1   --> A'             
     e( 19 - 19) =     25.80950  eV     1   --> A''            
     e( 20 - 20) =     29.61547  eV     1   --> A'             
     e( 21 - 21) =     30.76122  eV     1   --> A'             

 **************************************************************************

 **************************************************************************

                    xk=(   0.11196,   0.44783,   0.11196  )

     Band symmetry, C_s (m)     point group:

     e(  1 -  1) =    -67.25449  eV     1   --> A'             
     e(  2 -  2) =    -36.08454  eV     1   --> A'             
     e(  3 -  3) =    -36.07218  eV     1   --> A'             
     e(  4 -  4) =    -36.07101  eV     1   --> A''            
     e(  5 -  5) =     -2.32200  eV     1   --> A'             
     e(  6 -  6) =      5.54790  eV     1   --> A'             
     e(  7 -  7) =      7.22023  eV     1   --> A'             
     e(  8 -  8) =      7.42997  eV     1   --> A''            
     e(  9 -  9) =     10.23470  eV     1   --> A'             
     e( 10 - 10) =     11.24690  eV     1   --> A''            
     e( 11 - 11) =     12.03191  eV     1   --> A'             
     e( 12 - 12) =     13.03750  eV     1   --> A''            
     e( 13 - 13) =     13.57472  eV     1   --> A'             
     e( 14 - 14) =     17.71273  eV     1   --> A'             
     e( 15 - 15) =     19.47449  eV     1   --> A'             
     e( 16 - 16) =     21.64069  eV     1   --> A'             
     e( 17 - 17) =     22.30360  eV     1   --> A''            
     e( 18 - 18) =     24.67168  eV     1   --> A'             
     e( 19 - 19) =     25.65116  eV     1   --> A''            
     e( 20 - 20) =     29.45067  eV     1   --> A'             
     e( 21 - 21) =     31.14368  eV     1   --> A'             

 **************************************************************************

 **************************************************************************

                    xk=(   0.10607,   0.42426,   0.10607  )

     Band symmetry, C_s (m)     point group:

     e(  1 -  1) =    -67.25460  eV     1   --> A'             
[...]

                    xk=(  -0.25927,  -0.70711,   0.00000  )

     Band symmetry, C_2  (2)    point group:

     e(  1 -  1) =    -67.25389  eV     1   --> B              
     e(  2 -  2) =    -36.08721  eV     1   --> A              
     e(  3 -  3) =    -36.07857  eV     1   --> A              
     e(  4 -  4) =    -36.07462  eV     1   --> B              
     e(  5 -  5) =     -1.79884  eV     1   --> A              
     e(  6 -  6) =      5.61637  eV     1   --> B              
     e(  7 -  7) =      6.80499  eV     1   --> B              
     e(  8 -  8) =      7.61753  eV     1   --> A              
     e(  9 -  9) =      9.92202  eV     1   --> A              
     e( 10 - 10) =     10.79135  eV     1   --> B              
     e( 11 - 11) =     11.48840  eV     1   --> B              
     e( 12 - 12) =     12.21465  eV     1   --> A              
     e( 13 - 13) =     12.92051  eV     1   --> B              
     e( 14 - 14) =     18.46752  eV     1   --> A              
     e( 15 - 15) =     20.10592  eV     1   --> B              
     e( 16 - 16) =     21.90915  eV     1   --> A              
     e( 17 - 17) =     22.63201  eV     1   --> B              
     e( 18 - 18) =     27.23110  eV     1   --> A              
     e( 19 - 19) =     28.23653  eV     1   --> B              
     e( 20 - 20) =     28.54600  eV     1   --> B              
     e( 21 - 21) =     28.73198  eV     1   --> A              

 **************************************************************************

 **************************************************************************

                    xk=(  -0.23570,  -0.70711,  -0.00000  )

     Band symmetry, C_2  (2)    point group:

     e(  1 -  1) =    -67.25388  eV     1   --> B              
     e(  2 -  2) =    -36.08776  eV     1   --> A              
     e(  3 -  3) =    -36.07797  eV     1   --> A              
     e(  4 -  4) =    -36.07454  eV     1   --> B              
     e(  5 -  5) =     -1.79911  eV     1   --> A              
     e(  6 -  6) =      5.52154  eV     1   --> B              
     e(  7 -  7) =      6.93191  eV     1   --> B              
     e(  8 -  8) =      7.62846  eV     1   --> A              
     e(  9 -  9) =      9.92903  eV     1   --> A              
     e( 10 - 10) =     10.82455  eV     1   --> B              
     e( 11 - 11) =     11.48798  eV     1   --> B              
     e( 12 - 12) =     12.19618  eV     1   --> A              
     e( 13 - 13) =     12.86553  eV     1   --> B              
     e( 14 - 14) =     18.29949  eV     1   --> A              
     e( 15 - 15) =     19.85183  eV     1   --> B              
     e( 16 - 16) =     22.20415  eV     1   --> A              
     e( 17 - 17) =     22.97441  eV     1   --> B              
     e( 18 - 18) =     27.20314  eV     1   --> A              
     e( 19 - 19) =     28.16018  eV     1   --> B              
     e( 20 - 20) =     28.50925  eV     1   --> B              
     e( 21 - 21) =     28.62293  eV     1   --> A              

 **************************************************************************

 **************************************************************************

                    xk=(  -0.21213,  -0.70711,   0.00000  )

     Band symmetry, C_2  (2)    point group:

     e(  1 -  1) =    -67.25387  eV     1   --> B              
     e(  2 -  2) =    -36.08829  eV     1   --> A              
     e(  3 -  3) =    -36.07741  eV     1   --> A              
     e(  4 -  4) =    -36.07452  eV     1   --> B              
     e(  5 -  5) =     -1.79942  eV     1   --> A              
     e(  6 -  6) =      5.43129  eV     1   --> B              
     e(  7 -  7) =      7.05834  eV     1   --> B              
     e(  8 -  8) =      7.64084  eV     1   --> A              
     e(  9 -  9) =      9.93717  eV     1   --> A              
     e( 10 - 10) =     10.86602  eV     1   --> B              
     e( 11 - 11) =     11.48625  eV     1   --> B              
     e( 12 - 12) =     12.17495  eV     1   --> A              
     e( 13 - 13) =     12.79852  eV     1   --> B              
     e( 14 - 14) =     18.13366  eV     1   --> A              
     e( 15 - 15) =     19.61571  eV     1   --> B              
     e( 16 - 16) =     22.52049  eV     1   --> A              
     e( 17 - 17) =     23.31773  eV     1   --> B              
     e( 18 - 18) =     27.16934  eV     1   --> A              
     e( 19 - 19) =     28.07867  eV     1   --> B              
     e( 20 - 20) =     28.45087  eV     1   --> B              
     e( 21 - 21) =     28.51587  eV     1   --> A              

 **************************************************************************

 **************************************************************************

                    xk=(  -0.18856,  -0.70711,   0.00000  )

     Band symmetry, C_2  (2)    point group:

     e(  1 -  1) =    -67.25385  eV     1   --> B              
     e(  2 -  2) =    -36.08872  eV     1   --> A              
     e(  3 -  3) =    -36.07682  eV     1   --> A              
     e(  4 -  4) =    -36.07451  eV     1   --> B              
     e(  5 -  5) =     -1.79974  eV     1   --> A              
     e(  6 -  6) =      5.34780  eV     1   --> B              
     e(  7 -  7) =      7.18095  eV     1   --> B              
     e(  8 -  8) =      7.65416  eV     1   --> A              
     e(  9 -  9) =      9.94617  eV     1   --> A              
     e( 10 - 10) =     10.91701  eV     1   --> B              
     e( 11 - 11) =     11.48550  eV     1   --> B              
     e( 12 - 12) =     12.15103  eV     1   --> A              
     e( 13 - 13) =     12.72124  eV     1   --> B              
     e( 14 - 14) =     17.97668  eV     1   --> A              
     e( 15 - 15) =     19.40065  eV     1   --> B              
     e( 16 - 16) =     22.84842  eV     1   --> A              
     e( 17 - 17) =     23.66082  eV     1   --> B              
     e( 18 - 18) =     27.12948  eV     1   --> A              
     e( 19 - 19) =     27.98916  eV     1   --> B              
     e( 20 - 20) =     28.37540  eV     1   --> B              
     e( 21 - 21) =     28.41396  eV     1   --> A              

 **************************************************************************

 **************************************************************************

                    xk=(  -0.16499,  -0.70711,   0.00000  )

     Band symmetry, C_2  (2)    point group:

     e(  1 -  1) =    -67.25385  eV     1   --> B              
     e(  2 -  2) =    -36.08925  eV     1   --> A              
     e(  3 -  3) =    -36.07632  eV     1   --> A              
     e(  4 -  4) =    -36.07452  eV     1   --> B              
     e(  5 -  5) =     -1.80008  eV     1   --> A              
     e(  6 -  6) =      5.27223  eV     1   --> B              
     e(  7 -  7) =      7.29659  eV     1   --> B              
     e(  8 -  8) =      7.66780  eV     1   --> A              
     e(  9 -  9) =      9.95572  eV     1   --> A              
     e( 10 - 10) =     10.97583  eV     1   --> B              
     e( 11 - 11) =     11.48395  eV     1   --> B              
     e( 12 - 12) =     12.12523  eV     1   --> A              
     e( 13 - 13) =     12.63233  eV     1   --> B              
     e( 14 - 14) =     17.83280  eV     1   --> A              
     e( 15 - 15) =     19.20768  eV     1   --> B              
     e( 16 - 16) =     23.17956  eV     1   --> A              
     e( 17 - 17) =     24.00115  eV     1   --> B              
     e( 18 - 18) =     27.08344  eV     1   --> A              
     e( 19 - 19) =     27.88508  eV     1   --> B              
     e( 20 - 20) =     28.28988  eV     1   --> B              
     e( 21 - 21) =     28.31934  eV     1   --> A              

 **************************************************************************

 **************************************************************************

                    xk=(  -0.14142,  -0.70711,  -0.00000  )

     Band symmetry, C_2  (2)    point group:

     e(  1 -  1) =    -67.25382  eV     1   --> B              
     e(  2 -  2) =    -36.08964  eV     1   --> A              
     e(  3 -  3) =    -36.07581  eV     1   --> A              
     e(  4 -  4) =    -36.07446  eV     1   --> B              
     e(  5 -  5) =     -1.80039  eV     1   --> A              
     e(  6 -  6) =      5.20557  eV     1   --> B              
     e(  7 -  7) =      7.40287  eV     1   --> B              
     e(  8 -  8) =      7.68131  eV     1   --> A              
     e(  9 -  9) =      9.96593  eV     1   --> A              
     e( 10 - 10) =     11.04414  eV     1   --> B              
     e( 11 - 11) =     11.48260  eV     1   --> B              
     e( 12 - 12) =     12.10045  eV     1   --> A              
     e( 13 - 13) =     12.53514  eV     1   --> B              
     e( 14 - 14) =     17.70546  eV     1   --> A              
     e( 15 - 15) =     19.03878  eV     1   --> B              
     e( 16 - 16) =     23.50611  eV     1   --> A              
     e( 17 - 17) =     24.33772  eV     1   --> B              
     e( 18 - 18) =     27.03186  eV     1   --> A              
     e( 19 - 19) =     27.75865  eV     1   --> B              
     e( 20 - 20) =     28.20576  eV     1   --> B              
     e( 21 - 21) =     28.23412  eV     1   --> A              

 **************************************************************************

 **************************************************************************

                    xk=(  -0.11785,  -0.70711,   0.00000  )

     Band symmetry, C_2  (2)    point group:

     e(  1 -  1) =    -67.25383  eV     1   --> B              
     e(  2 -  2) =    -36.09007  eV     1   --> A              
     e(  3 -  3) =    -36.07542  eV     1   --> A              
     e(  4 -  4) =    -36.07447  eV     1   --> B              
     e(  5 -  5) =     -1.80071  eV     1   --> A              
     e(  6 -  6) =      5.14823  eV     1   --> B              
     e(  7 -  7) =      7.49711  eV     1   --> B              
     e(  8 -  8) =      7.69389  eV     1   --> A              
     e(  9 -  9) =      9.97542  eV     1   --> A              
     e( 10 - 10) =     11.11983  eV     1   --> B              
     e( 11 - 11) =     11.48124  eV     1   --> B              
     e( 12 - 12) =     12.07518  eV     1   --> A              
     e( 13 - 13) =     12.43003  eV     1   --> B              
     e( 14 - 14) =     17.59497  eV     1   --> A              
     e( 15 - 15) =     18.89409  eV     1   --> B              
     e( 16 - 16) =     23.81877  eV     1   --> A              
     e( 17 - 17) =     24.66745  eV     1   --> B              
     e( 18 - 18) =     26.97437  eV     1   --> A              
     e( 19 - 19) =     27.60376  eV     1   --> B              
     e( 20 - 20) =     28.13207  eV     1   --> B              
     e( 21 - 21) =     28.15895  eV     1   --> A              

 **************************************************************************

 **************************************************************************

                    xk=(  -0.09428,  -0.70711,   0.00000  )

     Band symmetry, C_2  (2)    point group:

     e(  1 -  1) =    -67.25382  eV     1   --> B              
     e(  2 -  2) =    -36.09042  eV     1   --> A              
     e(  3 -  3) =    -36.07501  eV     1   --> A              
     e(  4 -  4) =    -36.07445  eV     1   --> B              
     e(  5 -  5) =     -1.80097  eV     1   --> A              
     e(  6 -  6) =      5.10091  eV     1   --> B              
     e(  7 -  7) =      7.57741  eV     1   --> B              
     e(  8 -  8) =      7.70506  eV     1   --> A              
     e(  9 -  9) =      9.98479  eV     1   --> A              
     e( 10 - 10) =     11.20251  eV     1   --> B              
     e( 11 - 11) =     11.48029  eV     1   --> B              
     e( 12 - 12) =     12.05228  eV     1   --> A              
     e( 13 - 13) =     12.32151  eV     1   --> B              
     e( 14 - 14) =     17.50479  eV     1   --> A              
     e( 15 - 15) =     18.77574  eV     1   --> B              
     e( 16 - 16) =     24.10749  eV     1   --> A              
     e( 17 - 17) =     24.98795  eV     1   --> B              
     e( 18 - 18) =     26.91271  eV     1   --> A              
     e( 19 - 19) =     27.42128  eV     1   --> B              
     e( 20 - 20) =     28.07395  eV     1   --> B              
     e( 21 - 21) =     28.09535  eV     1   --> A              

 **************************************************************************

 **************************************************************************

                    xk=(  -0.07071,  -0.70711,   0.00000  )

     Band symmetry, C_2  (2)    point group:

     e(  1 -  1) =    -67.25383  eV     1   --> B              
     e(  2 -  2) =    -36.09070  eV     1   --> A              
     e(  3 -  3) =    -36.07473  eV     1   --> A              
     e(  4 -  4) =    -36.07448  eV     1   --> B              
     e(  5 -  5) =     -1.80120  eV     1   --> A              
     e(  6 -  6) =      5.06364  eV     1   --> B              
     e(  7 -  7) =      7.64183  eV     1   --> B              
     e(  8 -  8) =      7.71436  eV     1   --> A              
     e(  9 -  9) =      9.99254  eV     1   --> A              
     e( 10 - 10) =     11.28836  eV     1   --> B              
     e( 11 - 11) =     11.47896  eV     1   --> B              
     e( 12 - 12) =     12.03288  eV     1   --> A              
     e( 13 - 13) =     12.21336  eV     1   --> B              
     e( 14 - 14) =     17.43342  eV     1   --> A              
     e( 15 - 15) =     18.68241  eV     1   --> B              
     e( 16 - 16) =     24.35961  eV     1   --> A              
     e( 17 - 17) =     25.29379  eV     1   --> B              
     e( 18 - 18) =     26.85032  eV     1   --> A              
     e( 19 - 19) =     27.21805  eV     1   --> B              
     e( 20 - 20) =     28.03067  eV     1   --> B              
     e( 21 - 21) =     28.04451  eV     1   --> A              

 **************************************************************************

 **************************************************************************

                    xk=(  -0.04714,  -0.70711,   0.00000  )

     Band symmetry, C_2  (2)    point group:

     e(  1 -  1) =    -67.25380  eV     1   --> B              
     e(  2 -  2) =    -36.09084  eV     1   --> A              
     e(  3 -  3) =    -36.07452  eV     1   -->   ?
     e(  4 -  4) =    -36.07436  eV     1   -->   ?
     e(  5 -  5) =     -1.80136  eV     1   --> A              
     e(  6 -  6) =      5.03702  eV     1   --> B              
     e(  7 -  7) =      7.68895  eV     1   --> B              
     e(  8 -  8) =      7.72146  eV     1   --> A              
     e(  9 -  9) =      9.99877  eV     1   --> A              
     e( 10 - 10) =     11.37122  eV     1   --> B              
     e( 11 - 11) =     11.47909  eV     1   --> B              
     e( 12 - 12) =     12.01969  eV     1   --> A              
     e( 13 - 13) =     12.11408  eV     1   --> B              
     e( 14 - 14) =     17.38269  eV     1   --> A              
     e( 15 - 15) =     18.61619  eV     1   --> B              
     e( 16 - 16) =     24.55972  eV     1   --> A              
     e( 17 - 17) =     25.57480  eV     1   --> B              
     e( 18 - 18) =     26.79384  eV     1   --> A              
     e( 19 - 19) =     27.00823  eV     1   --> B              
     e( 20 - 20) =     28.00116  eV     1   --> B              
     e( 21 - 21) =     28.00831  eV     1   --> A              

 **************************************************************************

 **************************************************************************

                    xk=(  -0.02357,  -0.70711,  -0.00000  )

     Band symmetry, C_2  (2)    point group:

     e(  1 -  1) =    -67.25380  eV     1   --> B              
     e(  2 -  2) =    -36.09096  eV     1   --> A              
     e(  3 -  4) =    -36.07441  eV     2   --> A              
     e(  3 -  4) =    -36.07441  eV     2   --> B              
     e(  5 -  5) =     -1.80146  eV     1   --> A              
     e(  6 -  6) =      5.02090  eV     1   --> B              
     e(  7 -  7) =      7.71761  eV     1   --> B              
     e(  8 -  8) =      7.72578  eV     1   --> A              
     e(  9 -  9) =     10.00248  eV     1   --> A              
     e( 10 - 10) =     11.43543  eV     1   --> B              
     e( 11 - 11) =     11.48038  eV     1   --> B              
     e( 12 - 12) =     12.01042  eV     1   --> A              
     e( 13 - 13) =     12.03761  eV     1   --> B              
     e( 14 - 14) =     17.35174  eV     1   --> A              
     e( 15 - 15) =     18.57604  eV     1   --> B              
     e( 16 - 16) =     24.69030  eV     1   --> A              
     e( 17 - 17) =     25.80178  eV     1   --> B              
     e( 18 - 18) =     26.75274  eV     1   --> A              
     e( 19 - 19) =     26.82261  eV     1   --> B              
     e( 20 - 20) =     27.98386  eV     1   --> B              
     e( 21 - 21) =     27.98575  eV     1   --> A              

 **************************************************************************

 **************************************************************************

                    xk=(   0.00000,  -0.70711,   0.00000  )

     point group D_2d (-42m)
     there are  5 classes
     the character table:

       E     2S4   C2    2C2'  2s_d 
A_1    1.00  1.00  1.00  1.00  1.00
A_2    1.00  1.00  1.00 -1.00 -1.00
B_1    1.00 -1.00  1.00  1.00 -1.00
B_2    1.00 -1.00  1.00 -1.00  1.00
E      2.00  0.00 -2.00  0.00  0.00

     the symmetry operations in each class and the name of the first element:

     E        1
                                                                 
     2S4      7    8
                                                                 
     C2       3
                                                                 
     2C2'     2    4
                                                                 
     2s_d     5    6
                                                                 

     Band symmetry, D_2d (-42m) point group:

     e(  1 -  1) =    -67.25380  eV     1   --> B_2  X_3  W_2  
     e(  2 -  2) =    -36.09100  eV     1   --> A_1  X_1  W_1  
     e(  3 -  4) =    -36.07437  eV     2   --> E    X_5  W_3  
     e(  5 -  5) =     -1.80150  eV     1   --> A_1  X_1  W_1  
     e(  6 -  6) =      5.01551  eV     1   --> B_2  X_3  W_2  
     e(  7 -  8) =      7.72722  eV     2   --> E    X_5  W_3  
     e(  9 -  9) =     10.00375  eV     1   --> A_1  X_1  W_1  
     e( 10 - 10) =     11.45845  eV     1   --> B_2  X_3  W_2  
     e( 11 - 11) =     11.48397  eV     1   --> A_2  X_4  W_2' 
     e( 12 - 13) =     12.00726  eV     2   --> E    X_5  W_3  
     e( 14 - 14) =     17.34142  eV     1   --> A_1  X_1  W_1  
     e( 15 - 15) =     18.56265  eV     1   --> B_2  X_3  W_2  
     e( 16 - 16) =     24.73598  eV     1   --> B_1  X_2  W_1' 
     e( 17 - 17) =     25.90051  eV     1   --> B_2  X_3  W_2  
     e( 18 - 19) =     26.73748  eV     2   --> E    X_5  W_3  
     e( 20 - 21) =     27.97817  eV     2   --> E    X_5  W_3  

 **************************************************************************

     BANDS        :     15.44s CPU     15.64s WALL


   This run was terminated on:  14: 4:19  30Jan2025            

=------------------------------------------------------------------------------=
   JOB DONE.
=------------------------------------------------------------------------------=
