
     Program PWSCF v.7.3.1 starts on 30Jan2025 at 13:32: 7 

     This program is part of the open-source Quantum ESPRESSO suite
     for quantum simulation of materials; please cite
         "P. Giannozzi et al., J. Phys.:Condens. Matter 21 395502 (2009);
         "P. Giannozzi et al., J. Phys.:Condens. Matter 29 465901 (2017);
         "P. Giannozzi et al., J. Chem. Phys. 152 154105 (2020);
          URL http://www.quantum-espresso.org", 
     in publications or presentations arising from this work. More details at
     http://www.quantum-espresso.org/quote

     Parallel version (MPI), running on     6 processors

     MPI processes distributed on     1 nodes
     1534 MiB available memory on the printing compute node when the environment starts

     Reading input from bands.in

     Current dimensions of program PWSCF are:
     Max number of different atomic species (ntypx) = 10
     Max number of k-points (npk) =  40000
     Max angular momentum in pseudopotentials (lmaxx) =  4
     file Mn.pbe-spn-kjpaw_psl.0.3.1.UPF: wavefunction(s)  3P 3D renormalized
     file S.pbe-n-kjpaw_psl.1.0.0.UPF: wavefunction(s)  3S 3P renormalized

     Atomic positions and unit cell read from directory:
     ./temp/mns.save/


     R & G space division:  proc/nbgrp/npool/nimage =       6
     Subspace diagonalization in iterative solution of the eigenvalue problem:
     a serial algorithm will be used


     Parallelization info
     --------------------
     sticks:   dense  smooth     PW     G-vecs:    dense   smooth      PW
     Min          90      79     25                 1381     1142     206
     Max          92      80     26                 1382     1145     209
     Sum         547     475    151                 8291     6855    1243

     Using Slab Decomposition



     bravais-lattice index     =           -5
     lattice parameter (alat)  =       6.5874  a.u.
     unit-cell volume          =     202.1308 (a.u.)^3
     number of atoms/cell      =            2
     number of atomic types    =            2
     number of electrons       =        21.00
     number of Kohn-Sham states=           21
     kinetic-energy cutoff     =      40.0000  Ry
     charge density cutoff     =     180.0000  Ry
     Exchange-correlation= SLA  PW   PBX  PBC
                           (   1   4   3   4   0   0   0)

     celldm(1)=   6.587427  celldm(2)=   0.000000  celldm(3)=   0.000000
     celldm(4)=   0.500000  celldm(5)=   0.000000  celldm(6)=   0.000000

     crystal axes: (cart. coord. in units of alat)
               a(1) = (   0.000000   0.707107   0.707107 )  
               a(2) = (   0.707107   0.000000   0.707107 )  
               a(3) = (   0.707107   0.707107   0.000000 )  

     reciprocal axes: (cart. coord. in units 2 pi/alat)
               b(1) = ( -0.707107  0.707107  0.707107 )  
               b(2) = (  0.707107 -0.707107  0.707107 )  
               b(3) = (  0.707107  0.707107 -0.707107 )  


     PseudoPot. # 1 for Mn read from file:
     ./../../pseudos/Mn.pbe-spn-kjpaw_psl.0.3.1.UPF
     MD5 check sum: ba19e6d7ccbc12830efad05ba8577d9c
     Pseudo is Projector augmented-wave + core cor, Zval = 15.0
     Generated using &quot;atomic&quot; code by A. Dal Corso  v.6.2.2
     Shape of augmentation charge: PSQ
     Using radial grid of 1187 points,  6 beta functions with: 
                l(1) =   0
                l(2) =   0
                l(3) =   1
                l(4) =   1
                l(5) =   2
                l(6) =   2
     Q(r) pseudized with 0 coefficients 


     PseudoPot. # 2 for S  read from file:
     ./../../pseudos/S.pbe-n-kjpaw_psl.1.0.0.UPF
     MD5 check sum: fb45dfebcf3e72a4e1bd4a866ec2e262
     Pseudo is Projector augmented-wave + core cor, Zval =  6.0
     Generated using &quot;atomic&quot; code by A. Dal Corso  v.6.3
     Shape of augmentation charge: PSQ
     Using radial grid of 1151 points,  6 beta functions with: 
                l(1) =   0
                l(2) =   0
                l(3) =   1
                l(4) =   1
                l(5) =   2
                l(6) =   2
     Q(r) pseudized with 0 coefficients 


     atomic species   valence    mass     pseudopotential
     Mn               15.00    54.93800     Mn( 1.00)
     S                 6.00    32.06500     S ( 1.00)

     Starting magnetic structure 
     atomic species   magnetization
     Mn              0.200
     S               0.000

     24 Sym. Ops. (no inversion) found


                                    s                        frac. trans.

      isym =  1     identity                                     

 cryst.   s( 1) = (     1          0          0      )
                  (     0          1          0      )
                  (     0          0          1      )

 cart.    s( 1) = (  1.0000000  0.0000000  0.0000000 )
                  (  0.0000000  1.0000000  0.0000000 )
                  (  0.0000000  0.0000000  1.0000000 )


      isym =  2     180 deg rotation - cart. axis [0,0,1]        

 cryst.   s( 2) = (     0          1         -1      )
                  (     1          0         -1      )
                  (     0          0         -1      )

 cart.    s( 2) = ( -1.0000000  0.0000000  0.0000000 )
                  (  0.0000000 -1.0000000  0.0000000 )
                  (  0.0000000  0.0000000  1.0000000 )


      isym =  3     180 deg rotation - cart. axis [0,1,0]        

 cryst.   s( 3) = (     0         -1          1      )
                  (     0         -1          0      )
                  (     1         -1          0      )

 cart.    s( 3) = ( -1.0000000  0.0000000  0.0000000 )
                  (  0.0000000  1.0000000  0.0000000 )
                  (  0.0000000  0.0000000 -1.0000000 )


      isym =  4     180 deg rotation - cart. axis [1,0,0]        

 cryst.   s( 4) = (    -1          0          0      )
                  (    -1          0          1      )
                  (    -1          1          0      )

 cart.    s( 4) = (  1.0000000  0.0000000  0.0000000 )
                  (  0.0000000 -1.0000000  0.0000000 )
                  (  0.0000000  0.0000000 -1.0000000 )


      isym =  5     120 deg rotation - cart. axis [-1,-1,-1]     

 cryst.   s( 5) = (     0          0          1      )
                  (     1          0          0      )
                  (     0          1          0      )

 cart.    s( 5) = (  0.0000000  1.0000000  0.0000000 )
                  (  0.0000000  0.0000000  1.0000000 )
                  (  1.0000000  0.0000000  0.0000000 )


      isym =  6     120 deg rotation - cart. axis [-1,1,1]       

 cryst.   s( 6) = (     1         -1          0      )
                  (     0         -1          1      )
                  (     0         -1          0      )

 cart.    s( 6) = (  0.0000000 -1.0000000  0.0000000 )
                  (  0.0000000  0.0000000  1.0000000 )
                  ( -1.0000000  0.0000000  0.0000000 )


      isym =  7     120 deg rotation - cart. axis [1,1,-1]       

 cryst.   s( 7) = (    -1          1          0      )
                  (    -1          0          0      )
                  (    -1          0          1      )

 cart.    s( 7) = (  0.0000000  1.0000000  0.0000000 )
                  (  0.0000000  0.0000000 -1.0000000 )
                  ( -1.0000000  0.0000000  0.0000000 )


      isym =  8     120 deg rotation - cart. axis [1,-1,1]       

 cryst.   s( 8) = (     0          0         -1      )
                  (     0          1         -1      )
                  (     1          0         -1      )

 cart.    s( 8) = (  0.0000000 -1.0000000  0.0000000 )
                  (  0.0000000  0.0000000 -1.0000000 )
                  (  1.0000000  0.0000000  0.0000000 )


      isym =  9     120 deg rotation - cart. axis [1,1,1]        

 cryst.   s( 9) = (     0          1          0      )
                  (     0          0          1      )
                  (     1          0          0      )

 cart.    s( 9) = (  0.0000000  0.0000000  1.0000000 )
                  (  1.0000000  0.0000000  0.0000000 )
                  (  0.0000000  1.0000000  0.0000000 )


      isym = 10     120 deg rotation - cart. axis [-1,1,-1]      

 cryst.   s(10) = (    -1          0          1      )
                  (    -1          1          0      )
                  (    -1          0          0      )

 cart.    s(10) = (  0.0000000  0.0000000  1.0000000 )
                  ( -1.0000000  0.0000000  0.0000000 )
                  (  0.0000000 -1.0000000  0.0000000 )


      isym = 11     120 deg rotation - cart. axis [1,-1,-1]      

 cryst.   s(11) = (     1          0         -1      )
                  (     0          0         -1      )
                  (     0          1         -1      )

 cart.    s(11) = (  0.0000000  0.0000000 -1.0000000 )
                  ( -1.0000000  0.0000000  0.0000000 )
                  (  0.0000000  1.0000000  0.0000000 )


      isym = 12     120 deg rotation - cart. axis [-1,-1,1]      

 cryst.   s(12) = (     0         -1          0      )
                  (     1         -1          0      )
                  (     0         -1          1      )

 cart.    s(12) = (  0.0000000  0.0000000 -1.0000000 )
                  (  1.0000000  0.0000000  0.0000000 )
                  (  0.0000000 -1.0000000  0.0000000 )


      isym = 13     inv. 180 deg rotation - cart. axis [1,1,0]   

 cryst.   s(13) = (     1          0         -1      )
                  (     0          1         -1      )
                  (     0          0         -1      )

 cart.    s(13) = (  0.0000000 -1.0000000  0.0000000 )
                  ( -1.0000000  0.0000000  0.0000000 )
                  (  0.0000000  0.0000000  1.0000000 )


      isym = 14     inv. 180 deg rotation - cart. axis [1,-1,0]  

 cryst.   s(14) = (     0          1          0      )
                  (     1          0          0      )
                  (     0          0          1      )

 cart.    s(14) = (  0.0000000  1.0000000  0.0000000 )
                  (  1.0000000  0.0000000  0.0000000 )
                  (  0.0000000  0.0000000  1.0000000 )


      isym = 15     inv.  90 deg rotation - cart. axis [0,0,-1]  

 cryst.   s(15) = (     0         -1          0      )
                  (     0         -1          1      )
                  (     1         -1          0      )

 cart.    s(15) = (  0.0000000 -1.0000000  0.0000000 )
                  (  1.0000000  0.0000000  0.0000000 )
                  (  0.0000000  0.0000000 -1.0000000 )


      isym = 16     inv.  90 deg rotation - cart. axis [0,0,1]   

 cryst.   s(16) = (    -1          0          1      )
                  (    -1          0          0      )
                  (    -1          1          0      )

 cart.    s(16) = (  0.0000000  1.0000000  0.0000000 )
                  ( -1.0000000  0.0000000  0.0000000 )
                  (  0.0000000  0.0000000 -1.0000000 )


      isym = 17     inv. 180 deg rotation - cart. axis [1,0,1]   

 cryst.   s(17) = (     1         -1          0      )
                  (     0         -1          0      )
                  (     0         -1          1      )

 cart.    s(17) = (  0.0000000  0.0000000 -1.0000000 )
                  (  0.0000000  1.0000000  0.0000000 )
                  ( -1.0000000  0.0000000  0.0000000 )


      isym = 18     inv. 180 deg rotation - cart. axis [-1,0,1]  

 cryst.   s(18) = (     0          0          1      )
                  (     0          1          0      )
                  (     1          0          0      )

 cart.    s(18) = (  0.0000000  0.0000000  1.0000000 )
                  (  0.0000000  1.0000000  0.0000000 )
                  (  1.0000000  0.0000000  0.0000000 )


      isym = 19     inv.  90 deg rotation - cart. axis [0,1,0]   

 cryst.   s(19) = (     0          0         -1      )
                  (     1          0         -1      )
                  (     0          1         -1      )

 cart.    s(19) = (  0.0000000  0.0000000 -1.0000000 )
                  (  0.0000000 -1.0000000  0.0000000 )
                  (  1.0000000  0.0000000  0.0000000 )


      isym = 20     inv.  90 deg rotation - cart. axis [0,-1,0]  

 cryst.   s(20) = (    -1          1          0      )
                  (    -1          0          1      )
                  (    -1          0          0      )

 cart.    s(20) = (  0.0000000  0.0000000  1.0000000 )
                  (  0.0000000 -1.0000000  0.0000000 )
                  ( -1.0000000  0.0000000  0.0000000 )


      isym = 21     inv. 180 deg rotation - cart. axis [0,1,1]   

 cryst.   s(21) = (    -1          0          0      )
                  (    -1          1          0      )
                  (    -1          0          1      )

 cart.    s(21) = (  1.0000000  0.0000000  0.0000000 )
                  (  0.0000000  0.0000000 -1.0000000 )
                  (  0.0000000 -1.0000000  0.0000000 )


      isym = 22     inv. 180 deg rotation - cart. axis [0,1,-1]  

 cryst.   s(22) = (     1          0          0      )
                  (     0          0          1      )
                  (     0          1          0      )

 cart.    s(22) = (  1.0000000  0.0000000  0.0000000 )
                  (  0.0000000  0.0000000  1.0000000 )
                  (  0.0000000  1.0000000  0.0000000 )


      isym = 23     inv.  90 deg rotation - cart. axis [-1,0,0]  

 cryst.   s(23) = (     0          1         -1      )
                  (     0          0         -1      )
                  (     1          0         -1      )

 cart.    s(23) = ( -1.0000000  0.0000000  0.0000000 )
                  (  0.0000000  0.0000000 -1.0000000 )
                  (  0.0000000  1.0000000  0.0000000 )


      isym = 24     inv.  90 deg rotation - cart. axis [1,0,0]   

 cryst.   s(24) = (     0         -1          1      )
                  (     1         -1          0      )
                  (     0         -1          0      )

 cart.    s(24) = ( -1.0000000  0.0000000  0.0000000 )
                  (  0.0000000  0.0000000  1.0000000 )
                  (  0.0000000 -1.0000000  0.0000000 )


     point group T_d (-43m) 
     there are  5 classes
     the character table:

       E     8C3   3C2   6S4   6s_d 
A_1    1.00  1.00  1.00  1.00  1.00
A_2    1.00  1.00  1.00 -1.00 -1.00
E      2.00 -1.00  2.00  0.00  0.00
T_1    3.00  0.00 -1.00  1.00 -1.00
T_2    3.00  0.00 -1.00 -1.00  1.00

     the symmetry operations in each class and the name of the first element:

     E        1
          identity                                               
     8C3      5    7    8    6   12    9   10   11
          120 deg rotation - cart. axis [-1,-1,-1]               
     3C2      2    3    4
          180 deg rotation - cart. axis [0,0,1]                  
     6S4     15   16   20   19   23   24
          inv.  90 deg rotation - cart. axis [0,0,-1]            
     6s_d    13   14   17   18   21   22
          inv. 180 deg rotation - cart. axis [1,1,0]             

   Cartesian axes

     site n.     atom                  positions (alat units)
         1        Mn     tau(   1) = (   1.0606597   1.0606597   1.0606597  )
         2        S      tau(   2) = (   0.0000000   0.0000000   0.0000000  )

   Crystallographic axes

     site n.     atom                  positions (cryst. coord.)
         1        Mn     tau(   1) = (  0.7499996  0.7499996  0.7499996  )
         2        S      tau(   2) = (  0.0000000  0.0000000  0.0000000  )

     number of k points=   281  Gaussian smearing, width (Ry)=  0.0100
                       cart. coord. in units 2pi/alat
        k(    1) = (   0.0000000   0.0000000   0.0000000), wk =   0.0035587
        k(    2) = (   0.0000000   0.0282843   0.0000000), wk =   0.0035587
        k(    3) = (   0.0000000   0.0565685   0.0000000), wk =   0.0035587
        k(    4) = (   0.0000000   0.0848528   0.0000000), wk =   0.0035587
        k(    5) = (   0.0000000   0.1131371   0.0000000), wk =   0.0035587
        k(    6) = (   0.0000000   0.1414214   0.0000000), wk =   0.0035587
        k(    7) = (   0.0000000   0.1697056   0.0000000), wk =   0.0035587
        k(    8) = (   0.0000000   0.1979899   0.0000000), wk =   0.0035587
        k(    9) = (   0.0000000   0.2262742   0.0000000), wk =   0.0035587
        k(   10) = (   0.0000000   0.2545584   0.0000000), wk =   0.0035587
        k(   11) = (   0.0000000   0.2828427   0.0000000), wk =   0.0035587
        k(   12) = (   0.0000000   0.3111270   0.0000000), wk =   0.0035587
        k(   13) = (   0.0000000   0.3394113   0.0000000), wk =   0.0035587
        k(   14) = (   0.0000000   0.3676955   0.0000000), wk =   0.0035587
        k(   15) = (   0.0000000   0.3959798   0.0000000), wk =   0.0035587
        k(   16) = (   0.0000000   0.4242641   0.0000000), wk =   0.0035587
        k(   17) = (   0.0000000   0.4525483   0.0000000), wk =   0.0035587
        k(   18) = (   0.0000000   0.4808326   0.0000000), wk =   0.0035587
        k(   19) = (   0.0000000   0.5091169   0.0000000), wk =   0.0035587
        k(   20) = (   0.0000000   0.5374012   0.0000000), wk =   0.0035587
        k(   21) = (   0.0000000   0.5656854   0.0000000), wk =   0.0035587
        k(   22) = (   0.0000000   0.5939697   0.0000000), wk =   0.0035587
        k(   23) = (   0.0000000   0.6222540   0.0000000), wk =   0.0035587
        k(   24) = (   0.0000000   0.6505382   0.0000000), wk =   0.0035587
        k(   25) = (   0.0000000   0.6788225   0.0000000), wk =   0.0035587
        k(   26) = (   0.0000000   0.7071068   0.0000000), wk =   0.0035587
        k(   27) = (   0.0176777   0.7071068   0.0176777), wk =   0.0035587
        k(   28) = (   0.0353553   0.7071068   0.0353553), wk =   0.0035587
        k(   29) = (   0.0530330   0.7071068   0.0530330), wk =   0.0035587
        k(   30) = (   0.0707107   0.7071068   0.0707107), wk =   0.0035587
        k(   31) = (   0.0883883   0.7071068   0.0883883), wk =   0.0035587
        k(   32) = (   0.1060660   0.7071068   0.1060660), wk =   0.0035587
        k(   33) = (   0.1237437   0.7071068   0.1237437), wk =   0.0035587
        k(   34) = (   0.1414214   0.7071068   0.1414214), wk =   0.0035587
        k(   35) = (   0.1590990   0.7071068   0.1590990), wk =   0.0035587
        k(   36) = (   0.1767767   0.7071068   0.1767767), wk =   0.0035587
        k(   37) = (   0.1708841   0.6835366   0.1708841), wk =   0.0035587
        k(   38) = (   0.1649916   0.6599663   0.1649916), wk =   0.0035587
        k(   39) = (   0.1590990   0.6363961   0.1590990), wk =   0.0035587
        k(   40) = (   0.1532065   0.6128259   0.1532065), wk =   0.0035587
        k(   41) = (   0.1473139   0.5892557   0.1473139), wk =   0.0035587
        k(   42) = (   0.1414214   0.5656854   0.1414214), wk =   0.0035587
        k(   43) = (   0.1355288   0.5421152   0.1355288), wk =   0.0035587
        k(   44) = (   0.1296362   0.5185450   0.1296362), wk =   0.0035587
        k(   45) = (   0.1237437   0.4949747   0.1237437), wk =   0.0035587
        k(   46) = (   0.1178511   0.4714045   0.1178511), wk =   0.0035587
        k(   47) = (   0.1119586   0.4478343   0.1119586), wk =   0.0035587
        k(   48) = (   0.1060660   0.4242641   0.1060660), wk =   0.0035587
        k(   49) = (   0.1001735   0.4006938   0.1001735), wk =   0.0035587
        k(   50) = (   0.0942809   0.3771236   0.0942809), wk =   0.0035587
        k(   51) = (   0.0883883   0.3535534   0.0883883), wk =   0.0035587
        k(   52) = (   0.0824958   0.3299832   0.0824958), wk =   0.0035587
        k(   53) = (   0.0766032   0.3064129   0.0766032), wk =   0.0035587
        k(   54) = (   0.0707107   0.2828427   0.0707107), wk =   0.0035587
        k(   55) = (   0.0648181   0.2592725   0.0648181), wk =   0.0035587
        k(   56) = (   0.0589256   0.2357023   0.0589256), wk =   0.0035587
        k(   57) = (   0.0530330   0.2121320   0.0530330), wk =   0.0035587
        k(   58) = (   0.0471405   0.1885618   0.0471405), wk =   0.0035587
        k(   59) = (   0.0412479   0.1649916   0.0412479), wk =   0.0035587
        k(   60) = (   0.0353553   0.1414214   0.0353553), wk =   0.0035587
        k(   61) = (   0.0294628   0.1178511   0.0294628), wk =   0.0035587
        k(   62) = (   0.0235702   0.0942809   0.0235702), wk =   0.0035587
        k(   63) = (   0.0176777   0.0707107   0.0176777), wk =   0.0035587
        k(   64) = (   0.0117851   0.0471405   0.0117851), wk =   0.0035587
        k(   65) = (   0.0058926   0.0235702   0.0058926), wk =   0.0035587
        k(   66) = (   0.0000000   0.0000000   0.0000000), wk =   0.0035587
        k(   67) = (   0.0141421   0.0141421   0.0141421), wk =   0.0035587
        k(   68) = (   0.0282843   0.0282843   0.0282843), wk =   0.0035587
        k(   69) = (   0.0424264   0.0424264   0.0424264), wk =   0.0035587
        k(   70) = (   0.0565685   0.0565685   0.0565685), wk =   0.0035587
        k(   71) = (   0.0707107   0.0707107   0.0707107), wk =   0.0035587
        k(   72) = (   0.0848528   0.0848528   0.0848528), wk =   0.0035587
        k(   73) = (   0.0989949   0.0989949   0.0989949), wk =   0.0035587
        k(   74) = (   0.1131371   0.1131371   0.1131371), wk =   0.0035587
        k(   75) = (   0.1272792   0.1272792   0.1272792), wk =   0.0035587
        k(   76) = (   0.1414214   0.1414214   0.1414214), wk =   0.0035587
        k(   77) = (   0.1555635   0.1555635   0.1555635), wk =   0.0035587
        k(   78) = (   0.1697056   0.1697056   0.1697056), wk =   0.0035587
        k(   79) = (   0.1838478   0.1838478   0.1838478), wk =   0.0035587
        k(   80) = (   0.1979899   0.1979899   0.1979899), wk =   0.0035587
        k(   81) = (   0.2121320   0.2121320   0.2121320), wk =   0.0035587
        k(   82) = (   0.2262742   0.2262742   0.2262742), wk =   0.0035587
        k(   83) = (   0.2404163   0.2404163   0.2404163), wk =   0.0035587
        k(   84) = (   0.2545584   0.2545584   0.2545584), wk =   0.0035587
        k(   85) = (   0.2687006   0.2687006   0.2687006), wk =   0.0035587
        k(   86) = (   0.2828427   0.2828427   0.2828427), wk =   0.0035587
        k(   87) = (   0.2969848   0.2969848   0.2969848), wk =   0.0035587
        k(   88) = (   0.3111270   0.3111270   0.3111270), wk =   0.0035587
        k(   89) = (   0.3252691   0.3252691   0.3252691), wk =   0.0035587
        k(   90) = (   0.3394113   0.3394113   0.3394113), wk =   0.0035587
        k(   91) = (   0.3535534   0.3535534   0.3535534), wk =   0.0035587
        k(   92) = (   0.3535534   0.3712311   0.3358757), wk =   0.0035587
        k(   93) = (   0.3535534   0.3889087   0.3181981), wk =   0.0035587
        k(   94) = (   0.3535534   0.4065864   0.3005204), wk =   0.0035587
        k(   95) = (   0.3535534   0.4242641   0.2828427), wk =   0.0035587
        k(   96) = (   0.3535534   0.4419417   0.2651650), wk =   0.0035587
        k(   97) = (   0.3535534   0.4596194   0.2474874), wk =   0.0035587
        k(   98) = (   0.3535534   0.4772971   0.2298097), wk =   0.0035587
        k(   99) = (   0.3535534   0.4949747   0.2121320), wk =   0.0035587
        k(  100) = (   0.3535534   0.5126524   0.1944544), wk =   0.0035587
        k(  101) = (   0.3535534   0.5303301   0.1767767), wk =   0.0035587
        k(  102) = (   0.3535534   0.5480078   0.1590990), wk =   0.0035587
        k(  103) = (   0.3535534   0.5656854   0.1414214), wk =   0.0035587
        k(  104) = (   0.3535534   0.5833631   0.1237437), wk =   0.0035587
        k(  105) = (   0.3535534   0.6010408   0.1060660), wk =   0.0035587
        k(  106) = (   0.3535534   0.6187184   0.0883883), wk =   0.0035587
        k(  107) = (   0.3535534   0.6363961   0.0707107), wk =   0.0035587
        k(  108) = (   0.3535534   0.6540738   0.0530330), wk =   0.0035587
        k(  109) = (   0.3535534   0.6717514   0.0353553), wk =   0.0035587
        k(  110) = (   0.3535534   0.6894291   0.0176777), wk =   0.0035587
        k(  111) = (   0.3535534   0.7071068   0.0000000), wk =   0.0035587
        k(  112) = (   0.3299832   0.7071068   0.0000000), wk =   0.0035587
        k(  113) = (   0.3064129   0.7071068   0.0000000), wk =   0.0035587
        k(  114) = (   0.2828427   0.7071068   0.0000000), wk =   0.0035587
        k(  115) = (   0.2592725   0.7071068  -0.0000000), wk =   0.0035587
        k(  116) = (   0.2357023   0.7071068   0.0000000), wk =   0.0035587
        k(  117) = (   0.2121320   0.7071068   0.0000000), wk =   0.0035587
        k(  118) = (   0.1885618   0.7071068   0.0000000), wk =   0.0035587
        k(  119) = (   0.1649916   0.7071068   0.0000000), wk =   0.0035587
        k(  120) = (   0.1414214   0.7071068   0.0000000), wk =   0.0035587
        k(  121) = (   0.1178511   0.7071068   0.0000000), wk =   0.0035587
        k(  122) = (   0.0942809   0.7071068   0.0000000), wk =   0.0035587
        k(  123) = (   0.0707107   0.7071068  -0.0000000), wk =   0.0035587
        k(  124) = (   0.0471405   0.7071068   0.0000000), wk =   0.0035587
        k(  125) = (   0.0235702   0.7071068   0.0000000), wk =   0.0035587
        k(  126) = (   0.0000000   0.7071068   0.0000000), wk =   0.0035587
        k(  127) = (   0.0000000   0.6788225   0.0000000), wk =   0.0035587
        k(  128) = (   0.0000000   0.6505382   0.0000000), wk =   0.0035587
        k(  129) = (   0.0000000   0.6222540   0.0000000), wk =   0.0035587
        k(  130) = (   0.0000000   0.5939697   0.0000000), wk =   0.0035587
        k(  131) = (   0.0000000   0.5656854   0.0000000), wk =   0.0035587
        k(  132) = (   0.0000000   0.5374012   0.0000000), wk =   0.0035587
        k(  133) = (   0.0000000   0.5091169   0.0000000), wk =   0.0035587
        k(  134) = (   0.0000000   0.4808326   0.0000000), wk =   0.0035587
        k(  135) = (   0.0000000   0.4525483   0.0000000), wk =   0.0035587
        k(  136) = (   0.0000000   0.4242641   0.0000000), wk =   0.0035587
        k(  137) = (   0.0000000   0.3959798   0.0000000), wk =   0.0035587
        k(  138) = (   0.0000000   0.3676955   0.0000000), wk =   0.0035587
        k(  139) = (   0.0000000   0.3394113   0.0000000), wk =   0.0035587
        k(  140) = (   0.0000000   0.3111270   0.0000000), wk =   0.0035587
        k(  141) = (   0.0000000   0.2828427   0.0000000), wk =   0.0035587
        k(  142) = (   0.0000000   0.2545584   0.0000000), wk =   0.0035587
        k(  143) = (   0.0000000   0.2262742   0.0000000), wk =   0.0035587
        k(  144) = (   0.0000000   0.1979899   0.0000000), wk =   0.0035587
        k(  145) = (   0.0000000   0.1697056   0.0000000), wk =   0.0035587
        k(  146) = (   0.0000000   0.1414214   0.0000000), wk =   0.0035587
        k(  147) = (   0.0000000   0.1131371   0.0000000), wk =   0.0035587
        k(  148) = (   0.0000000   0.0848528   0.0000000), wk =   0.0035587
        k(  149) = (   0.0000000   0.0565685   0.0000000), wk =   0.0035587
        k(  150) = (   0.0000000   0.0282843   0.0000000), wk =   0.0035587
        k(  151) = (   0.0000000   0.0000000   0.0000000), wk =   0.0035587
        k(  152) = (   0.0000000  -0.0282843   0.0000000), wk =   0.0035587
        k(  153) = (   0.0000000  -0.0565685   0.0000000), wk =   0.0035587
        k(  154) = (   0.0000000  -0.0848528   0.0000000), wk =   0.0035587
        k(  155) = (   0.0000000  -0.1131371   0.0000000), wk =   0.0035587
        k(  156) = (   0.0000000  -0.1414214   0.0000000), wk =   0.0035587
        k(  157) = (   0.0000000  -0.1697056   0.0000000), wk =   0.0035587
        k(  158) = (   0.0000000  -0.1979899   0.0000000), wk =   0.0035587
        k(  159) = (   0.0000000  -0.2262742   0.0000000), wk =   0.0035587
        k(  160) = (   0.0000000  -0.2545584   0.0000000), wk =   0.0035587
        k(  161) = (   0.0000000  -0.2828427   0.0000000), wk =   0.0035587
        k(  162) = (   0.0000000  -0.3111270   0.0000000), wk =   0.0035587
        k(  163) = (   0.0000000  -0.3394113   0.0000000), wk =   0.0035587
        k(  164) = (   0.0000000  -0.3676955   0.0000000), wk =   0.0035587
        k(  165) = (   0.0000000  -0.3959798   0.0000000), wk =   0.0035587
        k(  166) = (   0.0000000  -0.4242641   0.0000000), wk =   0.0035587
        k(  167) = (   0.0000000  -0.4525483   0.0000000), wk =   0.0035587
        k(  168) = (   0.0000000  -0.4808326   0.0000000), wk =   0.0035587
        k(  169) = (   0.0000000  -0.5091169   0.0000000), wk =   0.0035587
        k(  170) = (   0.0000000  -0.5374012   0.0000000), wk =   0.0035587
        k(  171) = (   0.0000000  -0.5656854   0.0000000), wk =   0.0035587
        k(  172) = (   0.0000000  -0.5939697   0.0000000), wk =   0.0035587
        k(  173) = (   0.0000000  -0.6222540   0.0000000), wk =   0.0035587
        k(  174) = (   0.0000000  -0.6505382   0.0000000), wk =   0.0035587
        k(  175) = (   0.0000000  -0.6788225   0.0000000), wk =   0.0035587
        k(  176) = (   0.0000000  -0.7071068   0.0000000), wk =   0.0035587
        k(  177) = (  -0.0117851  -0.7071068  -0.0117851), wk =   0.0035587
        k(  178) = (  -0.0235702  -0.7071068  -0.0235702), wk =   0.0035587
        k(  179) = (  -0.0353553  -0.7071068  -0.0353553), wk =   0.0035587
        k(  180) = (  -0.0471405  -0.7071068  -0.0471405), wk =   0.0035587
        k(  181) = (  -0.0589256  -0.7071068  -0.0589256), wk =   0.0035587
        k(  182) = (  -0.0707107  -0.7071068  -0.0707107), wk =   0.0035587
        k(  183) = (  -0.0824958  -0.7071068  -0.0824958), wk =   0.0035587
        k(  184) = (  -0.0942809  -0.7071068  -0.0942809), wk =   0.0035587
        k(  185) = (  -0.1060660  -0.7071068  -0.1060660), wk =   0.0035587
        k(  186) = (  -0.1178511  -0.7071068  -0.1178511), wk =   0.0035587
        k(  187) = (  -0.1296362  -0.7071068  -0.1296362), wk =   0.0035587
        k(  188) = (  -0.1414214  -0.7071068  -0.1414214), wk =   0.0035587
        k(  189) = (  -0.1532065  -0.7071068  -0.1532065), wk =   0.0035587
        k(  190) = (  -0.1649916  -0.7071068  -0.1649916), wk =   0.0035587
        k(  191) = (  -0.1767767  -0.7071068  -0.1767767), wk =   0.0035587
        k(  192) = (  -0.1708841  -0.6835366  -0.1708841), wk =   0.0035587
        k(  193) = (  -0.1649916  -0.6599663  -0.1649916), wk =   0.0035587
        k(  194) = (  -0.1590990  -0.6363961  -0.1590990), wk =   0.0035587
        k(  195) = (  -0.1532065  -0.6128259  -0.1532065), wk =   0.0035587
        k(  196) = (  -0.1473139  -0.5892557  -0.1473139), wk =   0.0035587
        k(  197) = (  -0.1414214  -0.5656854  -0.1414214), wk =   0.0035587
        k(  198) = (  -0.1355288  -0.5421152  -0.1355288), wk =   0.0035587
        k(  199) = (  -0.1296362  -0.5185450  -0.1296362), wk =   0.0035587
        k(  200) = (  -0.1237437  -0.4949747  -0.1237437), wk =   0.0035587
        k(  201) = (  -0.1178511  -0.4714045  -0.1178511), wk =   0.0035587
        k(  202) = (  -0.1119586  -0.4478343  -0.1119586), wk =   0.0035587
        k(  203) = (  -0.1060660  -0.4242641  -0.1060660), wk =   0.0035587
        k(  204) = (  -0.1001735  -0.4006938  -0.1001735), wk =   0.0035587
        k(  205) = (  -0.0942809  -0.3771236  -0.0942809), wk =   0.0035587
        k(  206) = (  -0.0883883  -0.3535534  -0.0883883), wk =   0.0035587
        k(  207) = (  -0.0824958  -0.3299832  -0.0824958), wk =   0.0035587
        k(  208) = (  -0.0766032  -0.3064129  -0.0766032), wk =   0.0035587
        k(  209) = (  -0.0707107  -0.2828427  -0.0707107), wk =   0.0035587
        k(  210) = (  -0.0648181  -0.2592725  -0.0648181), wk =   0.0035587
        k(  211) = (  -0.0589256  -0.2357023  -0.0589256), wk =   0.0035587
        k(  212) = (  -0.0530330  -0.2121320  -0.0530330), wk =   0.0035587
        k(  213) = (  -0.0471405  -0.1885618  -0.0471405), wk =   0.0035587
        k(  214) = (  -0.0412479  -0.1649916  -0.0412479), wk =   0.0035587
        k(  215) = (  -0.0353553  -0.1414214  -0.0353553), wk =   0.0035587
        k(  216) = (  -0.0294628  -0.1178511  -0.0294628), wk =   0.0035587
        k(  217) = (  -0.0235702  -0.0942809  -0.0235702), wk =   0.0035587
        k(  218) = (  -0.0176777  -0.0707107  -0.0176777), wk =   0.0035587
        k(  219) = (  -0.0117851  -0.0471405  -0.0117851), wk =   0.0035587
        k(  220) = (  -0.0058926  -0.0235702  -0.0058926), wk =   0.0035587
        k(  221) = (   0.0000000   0.0000000   0.0000000), wk =   0.0035587
        k(  222) = (  -0.0141421  -0.0141421  -0.0141421), wk =   0.0035587
        k(  223) = (  -0.0282843  -0.0282843  -0.0282843), wk =   0.0035587
        k(  224) = (  -0.0424264  -0.0424264  -0.0424264), wk =   0.0035587
        k(  225) = (  -0.0565685  -0.0565685  -0.0565685), wk =   0.0035587
        k(  226) = (  -0.0707107  -0.0707107  -0.0707107), wk =   0.0035587
        k(  227) = (  -0.0848528  -0.0848528  -0.0848528), wk =   0.0035587
        k(  228) = (  -0.0989949  -0.0989949  -0.0989949), wk =   0.0035587
        k(  229) = (  -0.1131371  -0.1131371  -0.1131371), wk =   0.0035587
        k(  230) = (  -0.1272792  -0.1272792  -0.1272792), wk =   0.0035587
        k(  231) = (  -0.1414214  -0.1414214  -0.1414214), wk =   0.0035587
        k(  232) = (  -0.1555635  -0.1555635  -0.1555635), wk =   0.0035587
        k(  233) = (  -0.1697056  -0.1697056  -0.1697056), wk =   0.0035587
        k(  234) = (  -0.1838478  -0.1838478  -0.1838478), wk =   0.0035587
        k(  235) = (  -0.1979899  -0.1979899  -0.1979899), wk =   0.0035587
        k(  236) = (  -0.2121320  -0.2121320  -0.2121320), wk =   0.0035587
        k(  237) = (  -0.2262742  -0.2262742  -0.2262742), wk =   0.0035587
        k(  238) = (  -0.2404163  -0.2404163  -0.2404163), wk =   0.0035587
        k(  239) = (  -0.2545584  -0.2545584  -0.2545584), wk =   0.0035587
        k(  240) = (  -0.2687006  -0.2687006  -0.2687006), wk =   0.0035587
        k(  241) = (  -0.2828427  -0.2828427  -0.2828427), wk =   0.0035587
        k(  242) = (  -0.2969848  -0.2969848  -0.2969848), wk =   0.0035587
        k(  243) = (  -0.3111270  -0.3111270  -0.3111270), wk =   0.0035587
        k(  244) = (  -0.3252691  -0.3252691  -0.3252691), wk =   0.0035587
        k(  245) = (  -0.3394113  -0.3394113  -0.3394113), wk =   0.0035587
        k(  246) = (  -0.3535534  -0.3535534  -0.3535534), wk =   0.0035587
        k(  247) = (  -0.3535534  -0.3712311  -0.3358757), wk =   0.0035587
        k(  248) = (  -0.3535534  -0.3889087  -0.3181981), wk =   0.0035587
        k(  249) = (  -0.3535534  -0.4065864  -0.3005204), wk =   0.0035587
        k(  250) = (  -0.3535534  -0.4242641  -0.2828427), wk =   0.0035587
        k(  251) = (  -0.3535534  -0.4419417  -0.2651650), wk =   0.0035587
        k(  252) = (  -0.3535534  -0.4596194  -0.2474874), wk =   0.0035587
        k(  253) = (  -0.3535534  -0.4772971  -0.2298097), wk =   0.0035587
        k(  254) = (  -0.3535534  -0.4949747  -0.2121320), wk =   0.0035587
        k(  255) = (  -0.3535534  -0.5126524  -0.1944544), wk =   0.0035587
        k(  256) = (  -0.3535534  -0.5303301  -0.1767767), wk =   0.0035587
        k(  257) = (  -0.3535534  -0.5480078  -0.1590990), wk =   0.0035587
        k(  258) = (  -0.3535534  -0.5656854  -0.1414214), wk =   0.0035587
        k(  259) = (  -0.3535534  -0.5833631  -0.1237437), wk =   0.0035587
        k(  260) = (  -0.3535534  -0.6010408  -0.1060660), wk =   0.0035587
        k(  261) = (  -0.3535534  -0.6187184  -0.0883883), wk =   0.0035587
        k(  262) = (  -0.3535534  -0.6363961  -0.0707107), wk =   0.0035587
        k(  263) = (  -0.3535534  -0.6540738  -0.0530330), wk =   0.0035587
        k(  264) = (  -0.3535534  -0.6717514  -0.0353553), wk =   0.0035587
        k(  265) = (  -0.3535534  -0.6894291  -0.0176777), wk =   0.0035587
        k(  266) = (  -0.3535534  -0.7071068   0.0000000), wk =   0.0035587
        k(  267) = (  -0.3299832  -0.7071068   0.0000000), wk =   0.0035587
        k(  268) = (  -0.3064129  -0.7071068   0.0000000), wk =   0.0035587
        k(  269) = (  -0.2828427  -0.7071068   0.0000000), wk =   0.0035587
        k(  270) = (  -0.2592725  -0.7071068   0.0000000), wk =   0.0035587
        k(  271) = (  -0.2357023  -0.7071068  -0.0000000), wk =   0.0035587
        k(  272) = (  -0.2121320  -0.7071068   0.0000000), wk =   0.0035587
        k(  273) = (  -0.1885618  -0.7071068   0.0000000), wk =   0.0035587
        k(  274) = (  -0.1649916  -0.7071068   0.0000000), wk =   0.0035587
        k(  275) = (  -0.1414214  -0.7071068  -0.0000000), wk =   0.0035587
        k(  276) = (  -0.1178511  -0.7071068   0.0000000), wk =   0.0035587
        k(  277) = (  -0.0942809  -0.7071068   0.0000000), wk =   0.0035587
        k(  278) = (  -0.0707107  -0.7071068   0.0000000), wk =   0.0035587
        k(  279) = (  -0.0471405  -0.7071068   0.0000000), wk =   0.0035587
        k(  280) = (  -0.0235702  -0.7071068  -0.0000000), wk =   0.0035587
        k(  281) = (   0.0000000  -0.7071068   0.0000000), wk =   0.0035587

                       cryst. coord.
        k(    1) = (   0.0000000   0.0000000   0.0000000), wk =   0.0035587
        k(    2) = (   0.0200000   0.0000000   0.0200000), wk =   0.0035587
        k(    3) = (   0.0400000   0.0000000   0.0400000), wk =   0.0035587
        k(    4) = (   0.0600000   0.0000000   0.0600000), wk =   0.0035587
        k(    5) = (   0.0800000   0.0000000   0.0800000), wk =   0.0035587
        k(    6) = (   0.1000000   0.0000000   0.1000000), wk =   0.0035587
        k(    7) = (   0.1200000   0.0000000   0.1200000), wk =   0.0035587
        k(    8) = (   0.1400000   0.0000000   0.1400000), wk =   0.0035587
        k(    9) = (   0.1600000   0.0000000   0.1600000), wk =   0.0035587
        k(   10) = (   0.1800000   0.0000000   0.1800000), wk =   0.0035587
        k(   11) = (   0.2000000   0.0000000   0.2000000), wk =   0.0035587
        k(   12) = (   0.2200000   0.0000000   0.2200000), wk =   0.0035587
        k(   13) = (   0.2400000   0.0000000   0.2400000), wk =   0.0035587
        k(   14) = (   0.2600000   0.0000000   0.2600000), wk =   0.0035587
        k(   15) = (   0.2800000   0.0000000   0.2800000), wk =   0.0035587
        k(   16) = (   0.3000000   0.0000000   0.3000000), wk =   0.0035587
        k(   17) = (   0.3200000   0.0000000   0.3200000), wk =   0.0035587
        k(   18) = (   0.3400000   0.0000000   0.3400000), wk =   0.0035587
        k(   19) = (   0.3600000   0.0000000   0.3600000), wk =   0.0035587
        k(   20) = (   0.3800000   0.0000000   0.3800000), wk =   0.0035587
        k(   21) = (   0.4000000   0.0000000   0.4000000), wk =   0.0035587
        k(   22) = (   0.4200000   0.0000000   0.4200000), wk =   0.0035587
        k(   23) = (   0.4400000   0.0000000   0.4400000), wk =   0.0035587
        k(   24) = (   0.4600000   0.0000000   0.4600000), wk =   0.0035587
        k(   25) = (   0.4800000   0.0000000   0.4800000), wk =   0.0035587
        k(   26) = (   0.5000000   0.0000000   0.5000000), wk =   0.0035587
        k(   27) = (   0.5125000   0.0250000   0.5125000), wk =   0.0035587
        k(   28) = (   0.5250000   0.0500000   0.5250000), wk =   0.0035587
        k(   29) = (   0.5375000   0.0750000   0.5375000), wk =   0.0035587
        k(   30) = (   0.5500000   0.1000000   0.5500000), wk =   0.0035587
        k(   31) = (   0.5625000   0.1250000   0.5625000), wk =   0.0035587
        k(   32) = (   0.5750000   0.1500000   0.5750000), wk =   0.0035587
        k(   33) = (   0.5875000   0.1750000   0.5875000), wk =   0.0035587
        k(   34) = (   0.6000000   0.2000000   0.6000000), wk =   0.0035587
        k(   35) = (   0.6125000   0.2250000   0.6125000), wk =   0.0035587
        k(   36) = (   0.6250000   0.2500000   0.6250000), wk =   0.0035587
        k(   37) = (   0.6041667   0.2416667   0.6041667), wk =   0.0035587
        k(   38) = (   0.5833333   0.2333333   0.5833333), wk =   0.0035587
        k(   39) = (   0.5625000   0.2250000   0.5625000), wk =   0.0035587
        k(   40) = (   0.5416667   0.2166667   0.5416667), wk =   0.0035587
        k(   41) = (   0.5208333   0.2083333   0.5208333), wk =   0.0035587
        k(   42) = (   0.5000000   0.2000000   0.5000000), wk =   0.0035587
        k(   43) = (   0.4791667   0.1916667   0.4791667), wk =   0.0035587
        k(   44) = (   0.4583333   0.1833333   0.4583333), wk =   0.0035587
        k(   45) = (   0.4375000   0.1750000   0.4375000), wk =   0.0035587
        k(   46) = (   0.4166667   0.1666667   0.4166667), wk =   0.0035587
        k(   47) = (   0.3958333   0.1583333   0.3958333), wk =   0.0035587
        k(   48) = (   0.3750000   0.1500000   0.3750000), wk =   0.0035587
        k(   49) = (   0.3541667   0.1416667   0.3541667), wk =   0.0035587
        k(   50) = (   0.3333333   0.1333333   0.3333333), wk =   0.0035587
        k(   51) = (   0.3125000   0.1250000   0.3125000), wk =   0.0035587
        k(   52) = (   0.2916667   0.1166667   0.2916667), wk =   0.0035587
        k(   53) = (   0.2708333   0.1083333   0.2708333), wk =   0.0035587
        k(   54) = (   0.2500000   0.1000000   0.2500000), wk =   0.0035587
        k(   55) = (   0.2291667   0.0916667   0.2291667), wk =   0.0035587
        k(   56) = (   0.2083333   0.0833333   0.2083333), wk =   0.0035587
        k(   57) = (   0.1875000   0.0750000   0.1875000), wk =   0.0035587
        k(   58) = (   0.1666667   0.0666667   0.1666667), wk =   0.0035587
        k(   59) = (   0.1458333   0.0583333   0.1458333), wk =   0.0035587
        k(   60) = (   0.1250000   0.0500000   0.1250000), wk =   0.0035587
        k(   61) = (   0.1041667   0.0416667   0.1041667), wk =   0.0035587
        k(   62) = (   0.0833333   0.0333333   0.0833333), wk =   0.0035587
        k(   63) = (   0.0625000   0.0250000   0.0625000), wk =   0.0035587
        k(   64) = (   0.0416667   0.0166667   0.0416667), wk =   0.0035587
        k(   65) = (   0.0208333   0.0083333   0.0208333), wk =   0.0035587
        k(   66) = (   0.0000000   0.0000000   0.0000000), wk =   0.0035587
        k(   67) = (   0.0200000   0.0200000   0.0200000), wk =   0.0035587
        k(   68) = (   0.0400000   0.0400000   0.0400000), wk =   0.0035587
        k(   69) = (   0.0600000   0.0600000   0.0600000), wk =   0.0035587
        k(   70) = (   0.0800000   0.0800000   0.0800000), wk =   0.0035587
        k(   71) = (   0.1000000   0.1000000   0.1000000), wk =   0.0035587
        k(   72) = (   0.1200000   0.1200000   0.1200000), wk =   0.0035587
        k(   73) = (   0.1400000   0.1400000   0.1400000), wk =   0.0035587
        k(   74) = (   0.1600000   0.1600000   0.1600000), wk =   0.0035587
        k(   75) = (   0.1800000   0.1800000   0.1800000), wk =   0.0035587
        k(   76) = (   0.2000000   0.2000000   0.2000000), wk =   0.0035587
        k(   77) = (   0.2200000   0.2200000   0.2200000), wk =   0.0035587
        k(   78) = (   0.2400000   0.2400000   0.2400000), wk =   0.0035587
        k(   79) = (   0.2600000   0.2600000   0.2600000), wk =   0.0035587
        k(   80) = (   0.2800000   0.2800000   0.2800000), wk =   0.0035587
        k(   81) = (   0.3000000   0.3000000   0.3000000), wk =   0.0035587
        k(   82) = (   0.3200000   0.3200000   0.3200000), wk =   0.0035587
        k(   83) = (   0.3400000   0.3400000   0.3400000), wk =   0.0035587
        k(   84) = (   0.3600000   0.3600000   0.3600000), wk =   0.0035587
        k(   85) = (   0.3800000   0.3800000   0.3800000), wk =   0.0035587
        k(   86) = (   0.4000000   0.4000000   0.4000000), wk =   0.0035587
        k(   87) = (   0.4200000   0.4200000   0.4200000), wk =   0.0035587
        k(   88) = (   0.4400000   0.4400000   0.4400000), wk =   0.0035587
        k(   89) = (   0.4600000   0.4600000   0.4600000), wk =   0.0035587
        k(   90) = (   0.4800000   0.4800000   0.4800000), wk =   0.0035587
        k(   91) = (   0.5000000   0.5000000   0.5000000), wk =   0.0035587
        k(   92) = (   0.5000000   0.4875000   0.5125000), wk =   0.0035587
        k(   93) = (   0.5000000   0.4750000   0.5250000), wk =   0.0035587
        k(   94) = (   0.5000000   0.4625000   0.5375000), wk =   0.0035587
        k(   95) = (   0.5000000   0.4500000   0.5500000), wk =   0.0035587
        k(   96) = (   0.5000000   0.4375000   0.5625000), wk =   0.0035587
        k(   97) = (   0.5000000   0.4250000   0.5750000), wk =   0.0035587
        k(   98) = (   0.5000000   0.4125000   0.5875000), wk =   0.0035587
        k(   99) = (   0.5000000   0.4000000   0.6000000), wk =   0.0035587
        k(  100) = (   0.5000000   0.3875000   0.6125000), wk =   0.0035587
        k(  101) = (   0.5000000   0.3750000   0.6250000), wk =   0.0035587
        k(  102) = (   0.5000000   0.3625000   0.6375000), wk =   0.0035587
        k(  103) = (   0.5000000   0.3500000   0.6500000), wk =   0.0035587
        k(  104) = (   0.5000000   0.3375000   0.6625000), wk =   0.0035587
        k(  105) = (   0.5000000   0.3250000   0.6750000), wk =   0.0035587
        k(  106) = (   0.5000000   0.3125000   0.6875000), wk =   0.0035587
        k(  107) = (   0.5000000   0.3000000   0.7000000), wk =   0.0035587
        k(  108) = (   0.5000000   0.2875000   0.7125000), wk =   0.0035587
        k(  109) = (   0.5000000   0.2750000   0.7250000), wk =   0.0035587
        k(  110) = (   0.5000000   0.2625000   0.7375000), wk =   0.0035587
        k(  111) = (   0.5000000   0.2500000   0.7500000), wk =   0.0035587
        k(  112) = (   0.5000000   0.2333333   0.7333333), wk =   0.0035587
        k(  113) = (   0.5000000   0.2166667   0.7166667), wk =   0.0035587
        k(  114) = (   0.5000000   0.2000000   0.7000000), wk =   0.0035587
        k(  115) = (   0.5000000   0.1833333   0.6833333), wk =   0.0035587
        k(  116) = (   0.5000000   0.1666667   0.6666667), wk =   0.0035587
        k(  117) = (   0.5000000   0.1500000   0.6500000), wk =   0.0035587
        k(  118) = (   0.5000000   0.1333333   0.6333333), wk =   0.0035587
        k(  119) = (   0.5000000   0.1166667   0.6166667), wk =   0.0035587
        k(  120) = (   0.5000000   0.1000000   0.6000000), wk =   0.0035587
        k(  121) = (   0.5000000   0.0833333   0.5833333), wk =   0.0035587
        k(  122) = (   0.5000000   0.0666667   0.5666667), wk =   0.0035587
        k(  123) = (   0.5000000   0.0500000   0.5500000), wk =   0.0035587
        k(  124) = (   0.5000000   0.0333333   0.5333333), wk =   0.0035587
        k(  125) = (   0.5000000   0.0166667   0.5166667), wk =   0.0035587
        k(  126) = (   0.5000000   0.0000000   0.5000000), wk =   0.0035587
        k(  127) = (   0.4800000   0.0000000   0.4800000), wk =   0.0035587
        k(  128) = (   0.4600000   0.0000000   0.4600000), wk =   0.0035587
        k(  129) = (   0.4400000   0.0000000   0.4400000), wk =   0.0035587
        k(  130) = (   0.4200000   0.0000000   0.4200000), wk =   0.0035587
        k(  131) = (   0.4000000   0.0000000   0.4000000), wk =   0.0035587
        k(  132) = (   0.3800000   0.0000000   0.3800000), wk =   0.0035587
        k(  133) = (   0.3600000   0.0000000   0.3600000), wk =   0.0035587
        k(  134) = (   0.3400000   0.0000000   0.3400000), wk =   0.0035587
        k(  135) = (   0.3200000   0.0000000   0.3200000), wk =   0.0035587
        k(  136) = (   0.3000000   0.0000000   0.3000000), wk =   0.0035587
        k(  137) = (   0.2800000   0.0000000   0.2800000), wk =   0.0035587
        k(  138) = (   0.2600000   0.0000000   0.2600000), wk =   0.0035587
        k(  139) = (   0.2400000   0.0000000   0.2400000), wk =   0.0035587
        k(  140) = (   0.2200000   0.0000000   0.2200000), wk =   0.0035587
        k(  141) = (   0.2000000   0.0000000   0.2000000), wk =   0.0035587
        k(  142) = (   0.1800000   0.0000000   0.1800000), wk =   0.0035587
        k(  143) = (   0.1600000   0.0000000   0.1600000), wk =   0.0035587
        k(  144) = (   0.1400000   0.0000000   0.1400000), wk =   0.0035587
        k(  145) = (   0.1200000   0.0000000   0.1200000), wk =   0.0035587
        k(  146) = (   0.1000000   0.0000000   0.1000000), wk =   0.0035587
        k(  147) = (   0.0800000   0.0000000   0.0800000), wk =   0.0035587
        k(  148) = (   0.0600000   0.0000000   0.0600000), wk =   0.0035587
        k(  149) = (   0.0400000   0.0000000   0.0400000), wk =   0.0035587
        k(  150) = (   0.0200000   0.0000000   0.0200000), wk =   0.0035587
        k(  151) = (   0.0000000   0.0000000   0.0000000), wk =   0.0035587
        k(  152) = (  -0.0200000   0.0000000  -0.0200000), wk =   0.0035587
        k(  153) = (  -0.0400000   0.0000000  -0.0400000), wk =   0.0035587
        k(  154) = (  -0.0600000   0.0000000  -0.0600000), wk =   0.0035587
        k(  155) = (  -0.0800000   0.0000000  -0.0800000), wk =   0.0035587
        k(  156) = (  -0.1000000   0.0000000  -0.1000000), wk =   0.0035587
        k(  157) = (  -0.1200000   0.0000000  -0.1200000), wk =   0.0035587
        k(  158) = (  -0.1400000   0.0000000  -0.1400000), wk =   0.0035587
        k(  159) = (  -0.1600000   0.0000000  -0.1600000), wk =   0.0035587
        k(  160) = (  -0.1800000   0.0000000  -0.1800000), wk =   0.0035587
        k(  161) = (  -0.2000000   0.0000000  -0.2000000), wk =   0.0035587
        k(  162) = (  -0.2200000   0.0000000  -0.2200000), wk =   0.0035587
        k(  163) = (  -0.2400000   0.0000000  -0.2400000), wk =   0.0035587
        k(  164) = (  -0.2600000   0.0000000  -0.2600000), wk =   0.0035587
        k(  165) = (  -0.2800000   0.0000000  -0.2800000), wk =   0.0035587
        k(  166) = (  -0.3000000   0.0000000  -0.3000000), wk =   0.0035587
        k(  167) = (  -0.3200000   0.0000000  -0.3200000), wk =   0.0035587
        k(  168) = (  -0.3400000   0.0000000  -0.3400000), wk =   0.0035587
        k(  169) = (  -0.3600000   0.0000000  -0.3600000), wk =   0.0035587
        k(  170) = (  -0.3800000   0.0000000  -0.3800000), wk =   0.0035587
        k(  171) = (  -0.4000000   0.0000000  -0.4000000), wk =   0.0035587
        k(  172) = (  -0.4200000   0.0000000  -0.4200000), wk =   0.0035587
        k(  173) = (  -0.4400000   0.0000000  -0.4400000), wk =   0.0035587
        k(  174) = (  -0.4600000   0.0000000  -0.4600000), wk =   0.0035587
        k(  175) = (  -0.4800000   0.0000000  -0.4800000), wk =   0.0035587
        k(  176) = (  -0.5000000   0.0000000  -0.5000000), wk =   0.0035587
        k(  177) = (  -0.5083333  -0.0166667  -0.5083333), wk =   0.0035587
        k(  178) = (  -0.5166667  -0.0333333  -0.5166667), wk =   0.0035587
        k(  179) = (  -0.5250000  -0.0500000  -0.5250000), wk =   0.0035587
        k(  180) = (  -0.5333333  -0.0666667  -0.5333333), wk =   0.0035587
        k(  181) = (  -0.5416667  -0.0833333  -0.5416667), wk =   0.0035587
        k(  182) = (  -0.5500000  -0.1000000  -0.5500000), wk =   0.0035587
        k(  183) = (  -0.5583333  -0.1166667  -0.5583333), wk =   0.0035587
        k(  184) = (  -0.5666667  -0.1333333  -0.5666667), wk =   0.0035587
        k(  185) = (  -0.5750000  -0.1500000  -0.5750000), wk =   0.0035587
        k(  186) = (  -0.5833333  -0.1666667  -0.5833333), wk =   0.0035587
        k(  187) = (  -0.5916667  -0.1833333  -0.5916667), wk =   0.0035587
        k(  188) = (  -0.6000000  -0.2000000  -0.6000000), wk =   0.0035587
        k(  189) = (  -0.6083333  -0.2166667  -0.6083333), wk =   0.0035587
        k(  190) = (  -0.6166667  -0.2333333  -0.6166667), wk =   0.0035587
        k(  191) = (  -0.6250000  -0.2500000  -0.6250000), wk =   0.0035587
        k(  192) = (  -0.6041667  -0.2416667  -0.6041667), wk =   0.0035587
        k(  193) = (  -0.5833333  -0.2333333  -0.5833333), wk =   0.0035587
        k(  194) = (  -0.5625000  -0.2250000  -0.5625000), wk =   0.0035587
        k(  195) = (  -0.5416667  -0.2166667  -0.5416667), wk =   0.0035587
        k(  196) = (  -0.5208333  -0.2083333  -0.5208333), wk =   0.0035587
        k(  197) = (  -0.5000000  -0.2000000  -0.5000000), wk =   0.0035587
        k(  198) = (  -0.4791667  -0.1916667  -0.4791667), wk =   0.0035587
        k(  199) = (  -0.4583333  -0.1833333  -0.4583333), wk =   0.0035587
        k(  200) = (  -0.4375000  -0.1750000  -0.4375000), wk =   0.0035587
        k(  201) = (  -0.4166667  -0.1666667  -0.4166667), wk =   0.0035587
        k(  202) = (  -0.3958333  -0.1583333  -0.3958333), wk =   0.0035587
        k(  203) = (  -0.3750000  -0.1500000  -0.3750000), wk =   0.0035587
        k(  204) = (  -0.3541667  -0.1416667  -0.3541667), wk =   0.0035587
        k(  205) = (  -0.3333333  -0.1333333  -0.3333333), wk =   0.0035587
        k(  206) = (  -0.3125000  -0.1250000  -0.3125000), wk =   0.0035587
        k(  207) = (  -0.2916667  -0.1166667  -0.2916667), wk =   0.0035587
        k(  208) = (  -0.2708333  -0.1083333  -0.2708333), wk =   0.0035587
        k(  209) = (  -0.2500000  -0.1000000  -0.2500000), wk =   0.0035587
        k(  210) = (  -0.2291667  -0.0916667  -0.2291667), wk =   0.0035587
        k(  211) = (  -0.2083333  -0.0833333  -0.2083333), wk =   0.0035587
        k(  212) = (  -0.1875000  -0.0750000  -0.1875000), wk =   0.0035587
        k(  213) = (  -0.1666667  -0.0666667  -0.1666667), wk =   0.0035587
        k(  214) = (  -0.1458333  -0.0583333  -0.1458333), wk =   0.0035587
        k(  215) = (  -0.1250000  -0.0500000  -0.1250000), wk =   0.0035587
        k(  216) = (  -0.1041667  -0.0416667  -0.1041667), wk =   0.0035587
        k(  217) = (  -0.0833333  -0.0333333  -0.0833333), wk =   0.0035587
        k(  218) = (  -0.0625000  -0.0250000  -0.0625000), wk =   0.0035587
        k(  219) = (  -0.0416667  -0.0166667  -0.0416667), wk =   0.0035587
        k(  220) = (  -0.0208333  -0.0083333  -0.0208333), wk =   0.0035587
        k(  221) = (   0.0000000   0.0000000   0.0000000), wk =   0.0035587
        k(  222) = (  -0.0200000  -0.0200000  -0.0200000), wk =   0.0035587
        k(  223) = (  -0.0400000  -0.0400000  -0.0400000), wk =   0.0035587
        k(  224) = (  -0.0600000  -0.0600000  -0.0600000), wk =   0.0035587
        k(  225) = (  -0.0800000  -0.0800000  -0.0800000), wk =   0.0035587
        k(  226) = (  -0.1000000  -0.1000000  -0.1000000), wk =   0.0035587
        k(  227) = (  -0.1200000  -0.1200000  -0.1200000), wk =   0.0035587
        k(  228) = (  -0.1400000  -0.1400000  -0.1400000), wk =   0.0035587
        k(  229) = (  -0.1600000  -0.1600000  -0.1600000), wk =   0.0035587
        k(  230) = (  -0.1800000  -0.1800000  -0.1800000), wk =   0.0035587
        k(  231) = (  -0.2000000  -0.2000000  -0.2000000), wk =   0.0035587
        k(  232) = (  -0.2200000  -0.2200000  -0.2200000), wk =   0.0035587
        k(  233) = (  -0.2400000  -0.2400000  -0.2400000), wk =   0.0035587
        k(  234) = (  -0.2600000  -0.2600000  -0.2600000), wk =   0.0035587
        k(  235) = (  -0.2800000  -0.2800000  -0.2800000), wk =   0.0035587
        k(  236) = (  -0.3000000  -0.3000000  -0.3000000), wk =   0.0035587
        k(  237) = (  -0.3200000  -0.3200000  -0.3200000), wk =   0.0035587
        k(  238) = (  -0.3400000  -0.3400000  -0.3400000), wk =   0.0035587
        k(  239) = (  -0.3600000  -0.3600000  -0.3600000), wk =   0.0035587
        k(  240) = (  -0.3800000  -0.3800000  -0.3800000), wk =   0.0035587
        k(  241) = (  -0.4000000  -0.4000000  -0.4000000), wk =   0.0035587
        k(  242) = (  -0.4200000  -0.4200000  -0.4200000), wk =   0.0035587
        k(  243) = (  -0.4400000  -0.4400000  -0.4400000), wk =   0.0035587
        k(  244) = (  -0.4600000  -0.4600000  -0.4600000), wk =   0.0035587
        k(  245) = (  -0.4800000  -0.4800000  -0.4800000), wk =   0.0035587
        k(  246) = (  -0.5000000  -0.5000000  -0.5000000), wk =   0.0035587
        k(  247) = (  -0.5000000  -0.4875000  -0.5125000), wk =   0.0035587
        k(  248) = (  -0.5000000  -0.4750000  -0.5250000), wk =   0.0035587
        k(  249) = (  -0.5000000  -0.4625000  -0.5375000), wk =   0.0035587
        k(  250) = (  -0.5000000  -0.4500000  -0.5500000), wk =   0.0035587
        k(  251) = (  -0.5000000  -0.4375000  -0.5625000), wk =   0.0035587
        k(  252) = (  -0.5000000  -0.4250000  -0.5750000), wk =   0.0035587
        k(  253) = (  -0.5000000  -0.4125000  -0.5875000), wk =   0.0035587
        k(  254) = (  -0.5000000  -0.4000000  -0.6000000), wk =   0.0035587
        k(  255) = (  -0.5000000  -0.3875000  -0.6125000), wk =   0.0035587
        k(  256) = (  -0.5000000  -0.3750000  -0.6250000), wk =   0.0035587
        k(  257) = (  -0.5000000  -0.3625000  -0.6375000), wk =   0.0035587
        k(  258) = (  -0.5000000  -0.3500000  -0.6500000), wk =   0.0035587
        k(  259) = (  -0.5000000  -0.3375000  -0.6625000), wk =   0.0035587
        k(  260) = (  -0.5000000  -0.3250000  -0.6750000), wk =   0.0035587
        k(  261) = (  -0.5000000  -0.3125000  -0.6875000), wk =   0.0035587
        k(  262) = (  -0.5000000  -0.3000000  -0.7000000), wk =   0.0035587
        k(  263) = (  -0.5000000  -0.2875000  -0.7125000), wk =   0.0035587
        k(  264) = (  -0.5000000  -0.2750000  -0.7250000), wk =   0.0035587
        k(  265) = (  -0.5000000  -0.2625000  -0.7375000), wk =   0.0035587
        k(  266) = (  -0.5000000  -0.2500000  -0.7500000), wk =   0.0035587
        k(  267) = (  -0.5000000  -0.2333333  -0.7333333), wk =   0.0035587
        k(  268) = (  -0.5000000  -0.2166667  -0.7166667), wk =   0.0035587
        k(  269) = (  -0.5000000  -0.2000000  -0.7000000), wk =   0.0035587
        k(  270) = (  -0.5000000  -0.1833333  -0.6833333), wk =   0.0035587
        k(  271) = (  -0.5000000  -0.1666667  -0.6666667), wk =   0.0035587
        k(  272) = (  -0.5000000  -0.1500000  -0.6500000), wk =   0.0035587
        k(  273) = (  -0.5000000  -0.1333333  -0.6333333), wk =   0.0035587
        k(  274) = (  -0.5000000  -0.1166667  -0.6166667), wk =   0.0035587
        k(  275) = (  -0.5000000  -0.1000000  -0.6000000), wk =   0.0035587
        k(  276) = (  -0.5000000  -0.0833333  -0.5833333), wk =   0.0035587
        k(  277) = (  -0.5000000  -0.0666667  -0.5666667), wk =   0.0035587
        k(  278) = (  -0.5000000  -0.0500000  -0.5500000), wk =   0.0035587
        k(  279) = (  -0.5000000  -0.0333333  -0.5333333), wk =   0.0035587
        k(  280) = (  -0.5000000  -0.0166667  -0.5166667), wk =   0.0035587
        k(  281) = (  -0.5000000   0.0000000  -0.5000000), wk =   0.0035587

     Dense  grid:     8291 G-vectors     FFT dimensions: (  30,  30,  30)

     Smooth grid:     6855 G-vectors     FFT dimensions: (  27,  27,  27)

     Dynamical RAM for                 wfc:       0.05 MB

     Dynamical RAM for     wfc (w. buffer):       0.05 MB

     Dynamical RAM for           str. fact:       0.04 MB

     Dynamical RAM for           local pot:       0.00 MB

     Dynamical RAM for          nlocal pot:       0.08 MB

     Dynamical RAM for                qrad:       2.15 MB

     Dynamical RAM for          rho,v,vnew:       0.33 MB

     Dynamical RAM for           G-vectors:       0.09 MB

     Dynamical RAM for          h,s,v(r/c):       0.08 MB

     Dynamical RAM for          <psi|beta>:       0.01 MB

     Dynamical RAM for                 psi:       0.09 MB

     Dynamical RAM for                hpsi:       0.09 MB

     Dynamical RAM for                spsi:       0.09 MB

     Dynamical RAM for      wfcinit/wfcrot:       0.10 MB

     Dynamical RAM for           addusdens:       3.96 MB

     Estimated static dynamical RAM per process >       3.01 MB

     Estimated max dynamical RAM per process >       6.98 MB

     Estimated total dynamical RAM >      41.86 MB

     Check: negative core charge=   -0.000107
     Generating pointlists ...
     new r_m :   0.2526 (alat units)  1.6640 (a.u.) for type    1
     new r_m :   0.2526 (alat units)  1.6640 (a.u.) for type    2

     The potential is recalculated from file :
     ./temp/mns.save/charge-density

     Starting wfcs are   14 randomized atomic wfcs +    7 random wfcs
     Checking if some PAW data can be deallocated... 
       PAW data deallocated on    3 nodes for type:  1
       PAW data deallocated on    3 nodes for type:  2

     Band Structure Calculation
     Davidson diagonalization with overlap

     Computing kpt #:     1  of   562
     total cpu time spent up to now is        1.3 secs

     Computing kpt #:     2  of   562
     total cpu time spent up to now is        1.5 secs

     Computing kpt #:     3  of   562
     total cpu time spent up to now is        1.7 secs

     Computing kpt #:     4  of   562
     total cpu time spent up to now is        2.0 secs

     Computing kpt #:     5  of   562
     total cpu time spent up to now is        2.1 secs

     Computing kpt #:     6  of   562
     total cpu time spent up to now is        2.3 secs

     Computing kpt #:     7  of   562
     total cpu time spent up to now is        2.4 secs

     Computing kpt #:     8  of   562
     total cpu time spent up to now is        2.6 secs

     Computing kpt #:     9  of   562
     total cpu time spent up to now is        2.7 secs

     Computing kpt #:    10  of   562
     total cpu time spent up to now is        2.9 secs

     Computing kpt #:    11  of   562
     total cpu time spent up to now is        3.0 secs

     Computing kpt #:    12  of   562
     total cpu time spent up to now is        3.2 secs

     Computing kpt #:    13  of   562
     total cpu time spent up to now is        3.4 secs

     Computing kpt #:    14  of   562
     total cpu time spent up to now is        3.5 secs

     Computing kpt #:    15  of   562
     total cpu time spent up to now is        3.7 secs

     Computing kpt #:    16  of   562
     total cpu time spent up to now is        3.8 secs

     Computing kpt #:    17  of   562
     total cpu time spent up to now is        4.0 secs

     Computing kpt #:    18  of   562
     total cpu time spent up to now is        4.2 secs

     Computing kpt #:    19  of   562
     total cpu time spent up to now is        4.3 secs

     Computing kpt #:    20  of   562
     total cpu time spent up to now is        4.4 secs

     Computing kpt #:    21  of   562
     total cpu time spent up to now is        4.6 secs

     Computing kpt #:    22  of   562
     total cpu time spent up to now is        4.7 secs

     Computing kpt #:    23  of   562
     total cpu time spent up to now is        4.8 secs

     Computing kpt #:    24  of   562
     total cpu time spent up to now is        5.0 secs

     Computing kpt #:    25  of   562
     total cpu time spent up to now is        5.1 secs

     Computing kpt #:    26  of   562
     total cpu time spent up to now is        5.2 secs

     Computing kpt #:    27  of   562
     total cpu time spent up to now is        5.3 secs

     Computing kpt #:    28  of   562
     total cpu time spent up to now is        5.4 secs

     Computing kpt #:    29  of   562
     total cpu time spent up to now is        5.6 secs

     Computing kpt #:    30  of   562
     total cpu time spent up to now is        5.7 secs

     Computing kpt #:    31  of   562
     total cpu time spent up to now is        5.8 secs

     Computing kpt #:    32  of   562
     total cpu time spent up to now is        5.9 secs

     Computing kpt #:    33  of   562
     total cpu time spent up to now is        6.0 secs

     Computing kpt #:    34  of   562
     total cpu time spent up to now is        6.2 secs

     Computing kpt #:    35  of   562
     total cpu time spent up to now is        6.3 secs

     Computing kpt #:    36  of   562
     total cpu time spent up to now is        6.5 secs

     Computing kpt #:    37  of   562
     total cpu time spent up to now is        6.6 secs

     Computing kpt #:    38  of   562
     total cpu time spent up to now is        6.8 secs

     Computing kpt #:    39  of   562
     total cpu time spent up to now is        6.9 secs

     Computing kpt #:    40  of   562
     total cpu time spent up to now is        7.1 secs

     Computing kpt #:    41  of   562
     total cpu time spent up to now is        7.2 secs

     Computing kpt #:    42  of   562
     total cpu time spent up to now is        7.4 secs

     Computing kpt #:    43  of   562
     total cpu time spent up to now is        7.5 secs

     Computing kpt #:    44  of   562
     total cpu time spent up to now is        7.7 secs

     Computing kpt #:    45  of   562
     total cpu time spent up to now is        7.8 secs

     Computing kpt #:    46  of   562
     total cpu time spent up to now is        8.0 secs

     Computing kpt #:    47  of   562
     total cpu time spent up to now is        8.1 secs

     Computing kpt #:    48  of   562
     total cpu time spent up to now is        8.3 secs

     Computing kpt #:    49  of   562
     total cpu time spent up to now is        8.5 secs

     Computing kpt #:    50  of   562
     total cpu time spent up to now is        8.6 secs

     Computing kpt #:    51  of   562
     total cpu time spent up to now is        8.8 secs

     Computing kpt #:    52  of   562
     total cpu time spent up to now is        9.0 secs

     Computing kpt #:    53  of   562
     total cpu time spent up to now is        9.2 secs

     Computing kpt #:    54  of   562
     total cpu time spent up to now is        9.4 secs

     Computing kpt #:    55  of   562
     total cpu time spent up to now is        9.5 secs

     Computing kpt #:    56  of   562
     total cpu time spent up to now is        9.7 secs

     Computing kpt #:    57  of   562
     total cpu time spent up to now is        9.9 secs

     Computing kpt #:    58  of   562
     total cpu time spent up to now is       10.0 secs

     Computing kpt #:    59  of   562
     total cpu time spent up to now is       10.2 secs

     Computing kpt #:    60  of   562
     total cpu time spent up to now is       10.3 secs

     Computing kpt #:    61  of   562
     total cpu time spent up to now is       10.5 secs

     Computing kpt #:    62  of   562
     total cpu time spent up to now is       10.7 secs

     Computing kpt #:    63  of   562
     total cpu time spent up to now is       10.8 secs

     Computing kpt #:    64  of   562
     total cpu time spent up to now is       11.0 secs

     Computing kpt #:    65  of   562
     total cpu time spent up to now is       11.2 secs

     Computing kpt #:    66  of   562
     total cpu time spent up to now is       11.4 secs

     Computing kpt #:    67  of   562
     total cpu time spent up to now is       11.5 secs

     Computing kpt #:    68  of   562
     total cpu time spent up to now is       11.7 secs

     Computing kpt #:    69  of   562
     total cpu time spent up to now is       11.8 secs

     Computing kpt #:    70  of   562
     total cpu time spent up to now is       12.0 secs

     Computing kpt #:    71  of   562
     total cpu time spent up to now is       12.1 secs

     Computing kpt #:    72  of   562
     total cpu time spent up to now is       12.3 secs

     Computing kpt #:    73  of   562
     total cpu time spent up to now is       12.5 secs

     Computing kpt #:    74  of   562
     total cpu time spent up to now is       12.6 secs

     Computing kpt #:    75  of   562
     total cpu time spent up to now is       12.8 secs

     Computing kpt #:    76  of   562
     total cpu time spent up to now is       12.9 secs

     Computing kpt #:    77  of   562
     total cpu time spent up to now is       13.1 secs

     Computing kpt #:    78  of   562
     total cpu time spent up to now is       13.2 secs

     Computing kpt #:    79  of   562
     total cpu time spent up to now is       13.4 secs

     Computing kpt #:    80  of   562
     total cpu time spent up to now is       13.6 secs

     Computing kpt #:    81  of   562
     total cpu time spent up to now is       13.7 secs

     Computing kpt #:    82  of   562
     total cpu time spent up to now is       13.9 secs

     Computing kpt #:    83  of   562
     total cpu time spent up to now is       14.1 secs

     Computing kpt #:    84  of   562
     total cpu time spent up to now is       14.2 secs

     Computing kpt #:    85  of   562
     total cpu time spent up to now is       14.4 secs

     Computing kpt #:    86  of   562
     total cpu time spent up to now is       14.5 secs

     Computing kpt #:    87  of   562
     total cpu time spent up to now is       14.7 secs

     Computing kpt #:    88  of   562
     total cpu time spent up to now is       14.8 secs

     Computing kpt #:    89  of   562
     total cpu time spent up to now is       14.9 secs

     Computing kpt #:    90  of   562
     total cpu time spent up to now is       15.1 secs

     Computing kpt #:    91  of   562
     total cpu time spent up to now is       15.2 secs

     Computing kpt #:    92  of   562
     total cpu time spent up to now is       15.3 secs

     Computing kpt #:    93  of   562
     total cpu time spent up to now is       15.5 secs

     Computing kpt #:    94  of   562
     total cpu time spent up to now is       15.6 secs

     Computing kpt #:    95  of   562
     total cpu time spent up to now is       15.7 secs

     Computing kpt #:    96  of   562
     total cpu time spent up to now is       15.9 secs

     Computing kpt #:    97  of   562
     total cpu time spent up to now is       16.0 secs

     Computing kpt #:    98  of   562
     total cpu time spent up to now is       16.1 secs

     Computing kpt #:    99  of   562
     total cpu time spent up to now is       16.3 secs

     Computing kpt #:   100  of   562
     total cpu time spent up to now is       16.4 secs

     Computing kpt #:   101  of   562
     total cpu time spent up to now is       16.5 secs

     Computing kpt #:   102  of   562
     total cpu time spent up to now is       16.7 secs

     Computing kpt #:   103  of   562
     total cpu time spent up to now is       16.8 secs

     Computing kpt #:   104  of   562
     total cpu time spent up to now is       17.0 secs

     Computing kpt #:   105  of   562
     total cpu time spent up to now is       17.2 secs

     Computing kpt #:   106  of   562
     total cpu time spent up to now is       17.3 secs

     Computing kpt #:   107  of   562
     total cpu time spent up to now is       17.6 secs

     Computing kpt #:   108  of   562
     total cpu time spent up to now is       17.7 secs

     Computing kpt #:   109  of   562
     total cpu time spent up to now is       17.9 secs

     Computing kpt #:   110  of   562
     total cpu time spent up to now is       18.1 secs

     Computing kpt #:   111  of   562
     total cpu time spent up to now is       18.3 secs

     Computing kpt #:   112  of   562
     total cpu time spent up to now is       18.5 secs

     Computing kpt #:   113  of   562
     total cpu time spent up to now is       18.7 secs

     Computing kpt #:   114  of   562
     total cpu time spent up to now is       18.9 secs

     Computing kpt #:   115  of   562
     total cpu time spent up to now is       19.0 secs

     Computing kpt #:   116  of   562
     total cpu time spent up to now is       19.2 secs

     Computing kpt #:   117  of   562
     total cpu time spent up to now is       19.3 secs

     Computing kpt #:   118  of   562
     total cpu time spent up to now is       19.4 secs

     Computing kpt #:   119  of   562
     total cpu time spent up to now is       19.6 secs

     Computing kpt #:   120  of   562
     total cpu time spent up to now is       19.7 secs

     Computing kpt #:   121  of   562
     total cpu time spent up to now is       19.8 secs

     Computing kpt #:   122  of   562
     total cpu time spent up to now is       20.0 secs

     Computing kpt #:   123  of   562
     total cpu time spent up to now is       20.2 secs

     Computing kpt #:   124  of   562
     total cpu time spent up to now is       20.4 secs

     Computing kpt #:   125  of   562
     total cpu time spent up to now is       20.5 secs

     Computing kpt #:   126  of   562
     total cpu time spent up to now is       20.6 secs

     Computing kpt #:   127  of   562
     total cpu time spent up to now is       20.9 secs

     Computing kpt #:   128  of   562
     total cpu time spent up to now is       21.1 secs

     Computing kpt #:   129  of   562
     total cpu time spent up to now is       21.3 secs

     Computing kpt #:   130  of   562
     total cpu time spent up to now is       21.4 secs

     Computing kpt #:   131  of   562
     total cpu time spent up to now is       21.6 secs

     Computing kpt #:   132  of   562
     total cpu time spent up to now is       21.8 secs

     Computing kpt #:   133  of   562
     total cpu time spent up to now is       21.9 secs

     Computing kpt #:   134  of   562
     total cpu time spent up to now is       22.1 secs

     Computing kpt #:   135  of   562
     total cpu time spent up to now is       22.3 secs

     Computing kpt #:   136  of   562
     total cpu time spent up to now is       22.4 secs

     Computing kpt #:   137  of   562
     total cpu time spent up to now is       22.7 secs

     Computing kpt #:   138  of   562
     total cpu time spent up to now is       22.8 secs

     Computing kpt #:   139  of   562
     total cpu time spent up to now is       23.0 secs

     Computing kpt #:   140  of   562
     total cpu time spent up to now is       23.2 secs

     Computing kpt #:   141  of   562
     total cpu time spent up to now is       23.4 secs

     Computing kpt #:   142  of   562
     total cpu time spent up to now is       23.6 secs

     Computing kpt #:   143  of   562
     total cpu time spent up to now is       23.7 secs

     Computing kpt #:   144  of   562
     total cpu time spent up to now is       23.9 secs

     Computing kpt #:   145  of   562
     total cpu time spent up to now is       24.1 secs

     Computing kpt #:   146  of   562
     total cpu time spent up to now is       24.3 secs

     Computing kpt #:   147  of   562
     total cpu time spent up to now is       24.6 secs

     Computing kpt #:   148  of   562
     total cpu time spent up to now is       24.8 secs

     Computing kpt #:   149  of   562
     total cpu time spent up to now is       25.0 secs

     Computing kpt #:   150  of   562
     total cpu time spent up to now is       25.1 secs

     Computing kpt #:   151  of   562
     total cpu time spent up to now is       25.3 secs

     Computing kpt #:   152  of   562
     total cpu time spent up to now is       25.5 secs

     Computing kpt #:   153  of   562
     total cpu time spent up to now is       25.6 secs

     Computing kpt #:   154  of   562
     total cpu time spent up to now is       25.9 secs

     Computing kpt #:   155  of   562
     total cpu time spent up to now is       26.0 secs

     Computing kpt #:   156  of   562
     total cpu time spent up to now is       26.2 secs

     Computing kpt #:   157  of   562
     total cpu time spent up to now is       26.4 secs

     Computing kpt #:   158  of   562
     total cpu time spent up to now is       26.6 secs

     Computing kpt #:   159  of   562
     total cpu time spent up to now is       26.8 secs

     Computing kpt #:   160  of   562
     total cpu time spent up to now is       27.0 secs

     Computing kpt #:   161  of   562
     total cpu time spent up to now is       27.2 secs

     Computing kpt #:   162  of   562
     total cpu time spent up to now is       27.4 secs

     Computing kpt #:   163  of   562
     total cpu time spent up to now is       27.6 secs

     Computing kpt #:   164  of   562
     total cpu time spent up to now is       27.8 secs

     Computing kpt #:   165  of   562
     total cpu time spent up to now is       28.0 secs

     Computing kpt #:   166  of   562
     total cpu time spent up to now is       28.2 secs

     Computing kpt #:   167  of   562
     total cpu time spent up to now is       28.4 secs

     Computing kpt #:   168  of   562
     total cpu time spent up to now is       28.6 secs

     Computing kpt #:   169  of   562
     total cpu time spent up to now is       28.7 secs

     Computing kpt #:   170  of   562
     total cpu time spent up to now is       28.9 secs

     Computing kpt #:   171  of   562
     total cpu time spent up to now is       29.1 secs

     Computing kpt #:   172  of   562
     total cpu time spent up to now is       29.2 secs

     Computing kpt #:   173  of   562
     total cpu time spent up to now is       29.4 secs

     Computing kpt #:   174  of   562
     total cpu time spent up to now is       29.5 secs

     Computing kpt #:   175  of   562
     total cpu time spent up to now is       29.6 secs

     Computing kpt #:   176  of   562
     total cpu time spent up to now is       29.7 secs

     Computing kpt #:   177  of   562
     total cpu time spent up to now is       29.9 secs

     Computing kpt #:   178  of   562
     total cpu time spent up to now is       30.0 secs

     Computing kpt #:   179  of   562
     total cpu time spent up to now is       30.2 secs

     Computing kpt #:   180  of   562
     total cpu time spent up to now is       30.3 secs

     Computing kpt #:   181  of   562
     total cpu time spent up to now is       30.4 secs

     Computing kpt #:   182  of   562
     total cpu time spent up to now is       30.6 secs

     Computing kpt #:   183  of   562
     total cpu time spent up to now is       30.7 secs

     Computing kpt #:   184  of   562
     total cpu time spent up to now is       30.8 secs

     Computing kpt #:   185  of   562
     total cpu time spent up to now is       30.9 secs

     Computing kpt #:   186  of   562
     total cpu time spent up to now is       31.1 secs

     Computing kpt #:   187  of   562
     total cpu time spent up to now is       31.2 secs

     Computing kpt #:   188  of   562
     total cpu time spent up to now is       31.4 secs

     Computing kpt #:   189  of   562
     total cpu time spent up to now is       31.6 secs

     Computing kpt #:   190  of   562
     total cpu time spent up to now is       31.7 secs

     Computing kpt #:   191  of   562
     total cpu time spent up to now is       31.9 secs

     Computing kpt #:   192  of   562
     total cpu time spent up to now is       32.0 secs

     Computing kpt #:   193  of   562
     total cpu time spent up to now is       32.2 secs

     Computing kpt #:   194  of   562
     total cpu time spent up to now is       32.3 secs

     Computing kpt #:   195  of   562
     total cpu time spent up to now is       32.5 secs

     Computing kpt #:   196  of   562
     total cpu time spent up to now is       32.7 secs

     Computing kpt #:   197  of   562
     total cpu time spent up to now is       32.8 secs

     Computing kpt #:   198  of   562
     total cpu time spent up to now is       33.0 secs

     Computing kpt #:   199  of   562
     total cpu time spent up to now is       33.2 secs

     Computing kpt #:   200  of   562
     total cpu time spent up to now is       33.3 secs

     Computing kpt #:   201  of   562
     total cpu time spent up to now is       33.5 secs

     Computing kpt #:   202  of   562
     total cpu time spent up to now is       33.6 secs

     Computing kpt #:   203  of   562
     total cpu time spent up to now is       33.8 secs

     Computing kpt #:   204  of   562
     total cpu time spent up to now is       34.0 secs

     Computing kpt #:   205  of   562
     total cpu time spent up to now is       34.2 secs

     Computing kpt #:   206  of   562
     total cpu time spent up to now is       34.4 secs

     Computing kpt #:   207  of   562
     total cpu time spent up to now is       34.5 secs

     Computing kpt #:   208  of   562
     total cpu time spent up to now is       34.7 secs

     Computing kpt #:   209  of   562
     total cpu time spent up to now is       34.9 secs

     Computing kpt #:   210  of   562
     total cpu time spent up to now is       35.1 secs

     Computing kpt #:   211  of   562
[...]
    11.1269  11.2709  15.0534  15.3165  15.4232  16.4182  19.4762  20.0578
    20.0851  24.1409  24.9982  27.4244  28.6919

          k =-0.0236-0.0943-0.0236 (   881 PWs)   bands (ev):

   -66.9191 -35.7357 -35.7347 -35.7346  -3.4633   6.9730   7.1262   7.1274
    11.1648  11.2578  15.1894  15.4263  15.4889  16.2492  19.5528  19.9448
    19.9603  24.4265  25.0304  27.4009  28.5169

          k =-0.0177-0.0707-0.0177 (   881 PWs)   bands (ev):

   -66.9192 -35.7351 -35.7345 -35.7344  -3.4943   7.0296   7.1171   7.1179
    11.1948  11.2477  15.3135  15.5162  15.5482  16.0892  19.6209  19.8505
    19.8584  24.6908  25.0602  27.4162  28.3758

          k =-0.0118-0.0471-0.0118 (   881 PWs)   bands (ev):

   -66.9192 -35.7346 -35.7344 -35.7343  -3.5166   7.0713   7.1106   7.1110
    11.2168  11.2405  15.4307  15.5831  15.5962  15.9401  19.6745  19.7795
    19.7828  24.9092  25.0844  27.4793  28.2721

          k =-0.0059-0.0236-0.0059 (   881 PWs)   bands (ev):

   -66.9192 -35.7343 -35.7343 -35.7343  -3.5301   7.0968   7.1067   7.1068
    11.2302  11.2362  15.5456  15.6246  15.6277  15.8033  19.7087  19.7354
    19.7362  25.0546  25.1002  27.5852  28.2085

          k = 0.0000 0.0000 0.0000 (   869 PWs)   bands (ev):

   -66.9192 -35.7342 -35.7342 -35.7341  -3.5344   7.1056   7.1056   7.1057
    11.2348  11.2349  15.6401  15.6401  15.6401  15.7027  19.7204  19.7204
    19.7205  25.1059  25.1059  27.6588  28.1874

          k =-0.0141-0.0141-0.0141 (   881 PWs)   bands (ev):

   -66.9192 -35.7343 -35.7342 -35.7342  -3.5303   7.0967   7.1069   7.1069
    11.2333  11.2333  15.5395  15.6330  15.6330  15.7964  19.7195  19.7299
    19.7299  25.0786  25.0786  27.5805  28.2312

          k =-0.0283-0.0283-0.0283 (   881 PWs)   bands (ev):

   -66.9192 -35.7347 -35.7343 -35.7343  -3.5174   7.0709   7.1114   7.1114
    11.2290  11.2290  15.4039  15.6160  15.6160  15.9168  19.7168  19.7582
    19.7582  25.0025  25.0025  27.4287  28.3588

          k =-0.0424-0.0424-0.0424 (   881 PWs)   bands (ev):

   -66.9192 -35.7352 -35.7344 -35.7344  -3.4959   7.0286   7.1189   7.1189
    11.2221  11.2221  15.2525  15.5881  15.5881  16.0438  19.7123  19.8040
    19.8040  24.8902  24.8902  27.2702  28.5576

          k =-0.0566-0.0566-0.0566 (   881 PWs)   bands (ev):

   -66.9191 -35.7360 -35.7345 -35.7345  -3.4662   6.9710   7.1291   7.1291
    11.2132  11.2132  15.0841  15.5497  15.5497  16.1798  19.7061  19.8655
    19.8655  24.7568  24.7568  27.1228  28.8133

          k =-0.0707-0.0707-0.0707 (   881 PWs)   bands (ev):

   -66.9191 -35.7369 -35.7346 -35.7346  -3.4285   6.8994   7.1418   7.1418
    11.2030  11.2030  14.8987  15.5011  15.5011  16.3258  19.6992  19.9400
    19.9400  24.6162  24.6162  26.9912  29.1136

          k =-0.0849-0.0849-0.0849 (   887 PWs)   bands (ev):

   -66.9190 -35.7381 -35.7348 -35.7348  -3.3832   6.8155   7.1568   7.1568
    11.1917  11.1917  14.6974  15.4429  15.4429  16.4807  19.6933  20.0243
    20.0244  24.4792  24.4792  26.8768  29.4484

          k =-0.0990-0.0990-0.0990 (   881 PWs)   bands (ev):

   -66.9189 -35.7392 -35.7350 -35.7350  -3.3306   6.7213   7.1736   7.1736
    11.1816  11.1817  14.4840  15.3760  15.3760  16.6424  19.6913  20.1146
    20.1146  24.3566  24.3566  26.7800  29.8109

          k =-0.1131-0.1131-0.1131 (   887 PWs)   bands (ev):

   -66.9188 -35.7407 -35.7353 -35.7353  -3.2714   6.6183   7.1918   7.1918
    11.1718  11.1718  14.2595  15.3004  15.3004  16.8054  19.6975  20.2063
    20.2063  24.2546  24.2546  26.7004  30.1950

          k =-0.1273-0.1273-0.1273 (   881 PWs)   bands (ev):

   -66.9187 -35.7421 -35.7355 -35.7355  -3.2061   6.5087   7.2112   7.2112
    11.1650  11.1650  14.0297  15.2175  15.2175  16.9647  19.7174  20.2950
    20.2950  24.1812  24.1812  26.6379  30.5968

          k =-0.1414-0.1414-0.1414 (   875 PWs)   bands (ev):

   -66.9186 -35.7437 -35.7357 -35.7357  -3.1356   6.3939   7.2312   7.2312
    11.1617  11.1617  13.7949  15.1280  15.1280  17.1127  19.7574  20.3760
    20.3760  24.1413  24.1413  26.5918  31.0120

          k =-0.1556-0.1556-0.1556 (   872 PWs)   bands (ev):

   -66.9185 -35.7454 -35.7360 -35.7360  -3.0607   6.2760   7.2513   7.2514
    11.1623  11.1623  13.5601  15.0320  15.0320  17.2423  19.8238  20.4452
    20.4452  24.1388  24.1388  26.5621  31.4359

          k =-0.1697-0.1697-0.1697 (   878 PWs)   bands (ev):

   -66.9184 -35.7471 -35.7363 -35.7363  -2.9824   6.1564   7.2712   7.2712
    11.1666  11.1666  13.3281  14.9303  14.9303  17.3476  19.9214  20.4997
    20.4997  24.1754  24.1754  26.5481  31.8625

          k =-0.1838-0.1838-0.1838 (   881 PWs)   bands (ev):

   -66.9183 -35.7489 -35.7366 -35.7366  -2.9016   6.0369   7.2904   7.2905
    11.1765  11.1765  13.1012  14.8247  14.8247  17.4255  20.0524  20.5383
    20.5383  24.2527  24.2527  26.5506  32.2821

          k =-0.1980-0.1980-0.1980 (   869 PWs)   bands (ev):

   -66.9181 -35.7506 -35.7368 -35.7367  -2.8195   5.9193   7.3088   7.3088
    11.1929  11.1929  12.8836  14.7169  14.7169  17.4764  20.2148  20.5616
    20.5616  24.3689  24.3689  26.5703  32.6759

          k =-0.2121-0.2121-0.2121 (   869 PWs)   bands (ev):

   -66.9180 -35.7523 -35.7370 -35.7370  -2.7374   5.8047   7.3258   7.3258
    11.2137  11.2137  12.6770  14.6064  14.6064  17.5028  20.4031  20.5709
    20.5709  24.5192  24.5192  26.6069  33.0027

          k =-0.2263-0.2263-0.2263 (   857 PWs)   bands (ev):

   -66.9179 -35.7538 -35.7372 -35.7372  -2.6566   5.6950   7.3415   7.3415
    11.2406  11.2406  12.4842  14.4964  14.4965  17.5101  20.5693  20.5693
    20.6098  24.6994  24.6994  26.6622  32.9806

          k =-0.2404-0.2404-0.2404 (   857 PWs)   bands (ev):

   -66.9178 -35.7554 -35.7374 -35.7374  -2.5788   5.5913   7.3554   7.3554
    11.2712  11.2712  12.3049  14.3874  14.3875  17.5030  20.5594  20.5594
    20.8256  24.9021  24.9021  26.7364  32.6949

          k =-0.2546-0.2546-0.2546 (   863 PWs)   bands (ev):

   -66.9177 -35.7568 -35.7377 -35.7377  -2.5052   5.4952   7.3674   7.3674
    11.3045  11.3046  12.1433  14.2816  14.2816  17.4864  20.5439  20.5439
    21.0418  25.1203  25.1203  26.8295  32.3203

          k =-0.2687-0.2687-0.2687 (   863 PWs)   bands (ev):

   -66.9176 -35.7581 -35.7379 -35.7379  -2.4374   5.4083   7.3777   7.3777
    11.3403  11.3403  12.0004  14.1821  14.1821  17.4651  20.5261  20.5261
    21.2496  25.3467  25.3467  26.9435  31.9101

          k =-0.2828-0.2828-0.2828 (   869 PWs)   bands (ev):

   -66.9176 -35.7593 -35.7381 -35.7381  -2.3770   5.3318   7.3863   7.3863
    11.3757  11.3757  11.8763  14.0908  14.0908  17.4423  20.5078  20.5078
    21.4407  25.5716  25.5716  27.0760  31.4959

          k =-0.2970-0.2970-0.2970 (   865 PWs)   bands (ev):

   -66.9175 -35.7601 -35.7382 -35.7382  -2.3252   5.2672   7.3932   7.3932
    11.4099  11.4099  11.7751  14.0108  14.0108  17.4205  20.4909  20.4909
    21.6082  25.7846  25.7846  27.2231  31.1010

          k =-0.3111-0.3111-0.3111 (   859 PWs)   bands (ev):

   -66.9175 -35.7608 -35.7383 -35.7383  -2.2835   5.2156   7.3985   7.3985
    11.4401  11.4401  11.6946  13.9453  13.9453  17.4020  20.4767  20.4767
    21.7451  25.9731  25.9731  27.3761  30.7458

          k =-0.3253-0.3253-0.3253 (   868 PWs)   bands (ev):

   -66.9174 -35.7615 -35.7384 -35.7384  -2.2528   5.1778   7.4021   7.4021
    11.4627  11.4627  11.6359  13.8953  13.8953  17.3875  20.4658  20.4658
    21.8464  26.1222  26.1222  27.5168  30.4547

          k =-0.3394-0.3394-0.3394 (   862 PWs)   bands (ev):

   -66.9174 -35.7617 -35.7385 -35.7385  -2.2340   5.1550   7.4043   7.4043
    11.4781  11.4781  11.6019  13.8646  13.8646  17.3786  20.4591  20.4591
    21.9091  26.2193  26.2193  27.6212  30.2587

          k =-0.3536-0.3536-0.3536 (   862 PWs)   bands (ev):

   -66.9174 -35.7618 -35.7385 -35.7385  -2.2277   5.1473   7.4051   7.4051
    11.4832  11.4832  11.5902  13.8542  13.8542  17.3755  20.4568  20.4568
    21.9301  26.2530  26.2530  27.6604  30.1885

          k =-0.3536-0.3712-0.3359 (   862 PWs)   bands (ev):

   -66.9174 -35.7618 -35.7386 -35.7385  -2.2253   5.1523   7.3975   7.4069
    11.4705  11.4811  11.5950  13.8426  13.8507  17.3964  20.4238  20.4683
    21.9723  26.2091  26.2447  27.7100  30.1365

          k =-0.3536-0.3889-0.3182 (   862 PWs)   bands (ev):

   -66.9174 -35.7617 -35.7388 -35.7386  -2.2179   5.1674   7.3750   7.4123
    11.4364  11.4747  11.6057  13.8087  13.8404  17.4571  20.3374  20.5030
    22.0849  26.0978  26.2196  27.8377  30.0167

          k =-0.3536-0.4066-0.3005 (   860 PWs)   bands (ev):

   -66.9174 -35.7615 -35.7392 -35.7387  -2.2057   5.1923   7.3382   7.4213
    11.3869  11.4635  11.6179  13.7553  13.8237  17.5527  20.2229  20.5611
    22.2379  25.9585  26.1775  28.0008  29.8895

          k =-0.3536-0.4243-0.2828 (   858 PWs)   bands (ev):

   -66.9173 -35.7612 -35.7398 -35.7388  -2.1891   5.2268   7.2881   7.4334
    11.3244  11.4473  11.6309  13.6857  13.8009  17.6755  20.1023  20.6428
    22.4023  25.8229  26.1186  28.1600  29.8000

          k =-0.3536-0.4419-0.2652 (   864 PWs)   bands (ev):

   -66.9173 -35.7610 -35.7405 -35.7391  -2.1682   5.2703   7.2262   7.4483
    11.2498  11.4252  11.6444  13.6028  13.7725  17.8170  19.9899  20.7478
    22.5537  25.7123  26.0465  28.2837  29.7803

          k =-0.3536-0.4596-0.2475 (   862 PWs)   bands (ev):

   -66.9173 -35.7606 -35.7413 -35.7393  -2.1435   5.3225   7.1542   7.4659
    11.1661  11.3984  11.6595  13.5108  13.7405  17.9692  19.8949  20.8748
    22.6744  25.6351  25.9745  28.3556  29.8465

          k =-0.3536-0.4773-0.2298 (   860 PWs)   bands (ev):

   -66.9172 -35.7602 -35.7422 -35.7396  -2.1156   5.3825   7.0743   7.4853
    11.0745  11.3671  11.6763  13.4119  13.7051  18.1238  19.8225  21.0194
    22.7527  25.5760  25.9337  28.3808  29.9887

          k =-0.3536-0.4950-0.2121 (   858 PWs)   bands (ev):

   -66.9172 -35.7597 -35.7432 -35.7399  -2.0850   5.4493   6.9888   7.5059
    10.9765  11.3322  11.6947  13.3082  13.6679  18.2743  19.7758  21.1743
    22.7873  25.5023  25.9682  28.3786  30.1801

          k =-0.3536-0.5127-0.1945 (   858 PWs)   bands (ev):

   -66.9171 -35.7592 -35.7442 -35.7403  -2.0524   5.5217   6.9001   7.5272
    10.8741  11.2940  11.7147  13.2018  13.6295  18.4148  19.7571  21.3276
    22.7863  25.4111  26.0871  28.3661  30.3908

          k =-0.3536-0.5303-0.1768 (   870 PWs)   bands (ev):

   -66.9171 -35.7588 -35.7453 -35.7408  -2.0186   5.5979   6.8112   7.5482
    10.7688  11.2530  11.7351  13.0945  13.5905  18.5407  19.7678  21.4634
    22.7615  25.3293  26.2688  28.3528  30.5930

          k =-0.3536-0.5480-0.1591 (   860 PWs)   bands (ev):

   -66.9170 -35.7582 -35.7463 -35.7411  -1.9843   5.6761   6.7254   7.5683
    10.6636  11.2123  11.7585  12.9902  13.5535  18.6494  19.8110  21.5662
    22.7230  25.2879  26.4932  28.3431  30.7613

          k =-0.3536-0.5657-0.1414 (   860 PWs)   bands (ev):

   -66.9170 -35.7577 -35.7473 -35.7416  -1.9504   5.7530   6.6460   7.5864
    10.5594  11.1710  11.7818  12.8896  13.5176  18.7385  19.8853  21.6253
    22.6685  25.3129  26.7441  28.3377  30.8696

          k =-0.3536-0.5834-0.1237 (   866 PWs)   bands (ev):

   -66.9170 -35.7572 -35.7482 -35.7421  -1.9177   5.8249   6.5771   7.6019
    10.4584  11.1303  11.8052  12.7947  13.4835  18.8084  19.9897  21.6421
    22.5878  25.4225  27.0108  28.3368  30.9017

          k =-0.3536-0.6010-0.1061 (   862 PWs)   bands (ev):

   -66.9169 -35.7568 -35.7488 -35.7426  -1.8872   5.8869   6.5236   7.6142
    10.3637  11.0926  11.8293  12.7083  13.4530  18.8616  20.1214  21.6285
    22.4728  25.6202  27.2853  28.3404  30.8552

          k =-0.3536-0.6187-0.0884 (   858 PWs)   bands (ev):

   -66.9169 -35.7565 -35.7493 -35.7431  -1.8597   5.9336   6.4897   7.6229
    10.2772  11.0582  11.8532  12.6312  13.4258  18.9009  20.2764  21.5975
    22.3221  25.8941  27.5604  28.3487  30.7353

          k =-0.3536-0.6364-0.0707 (   868 PWs)   bands (ev):

   -66.9169 -35.7563 -35.7498 -35.7435  -1.8359   5.9618   6.4767   7.6279
    10.2012  11.0274  11.8749  12.5635  13.4016  18.9285  20.4499  21.5596
    22.1420  26.2226  27.8282  28.3635  30.5082

          k =-0.3536-0.6541-0.0530 (   868 PWs)   bands (ev):

   -66.9168 -35.7562 -35.7500 -35.7440  -1.8167   5.9733   6.4812   7.6300
    10.1392  11.0027  11.8947  12.5091  13.3827  18.9481  20.6389  21.5233
    21.9429  26.5793  28.0785  28.3901  30.0999

          k =-0.3536-0.6718-0.0354 (   866 PWs)   bands (ev):

   -66.9168 -35.7561 -35.7500 -35.7443  -1.8024   5.9745   6.4943   7.6301
    10.0930  10.9847  11.9108  12.4685  13.3691  18.9609  20.8397  21.4905
    21.7355  26.9254  28.2952  28.4393  29.6584

          k =-0.3536-0.6894-0.0177 (   876 PWs)   bands (ev):

   -66.9168 -35.7562 -35.7501 -35.7446  -1.7937   5.9721   6.5062   7.6295
    10.0643  10.9727  11.9205  12.4428  13.3594  18.9679  21.0468  21.4384
    21.5533  27.1968  28.4646  28.5140  29.2683

          k =-0.3536-0.7071 0.0000 (   876 PWs)   bands (ev):

   -66.9168 -35.7562 -35.7501 -35.7446  -1.7908   5.9708   6.5109   7.6291
    10.0547  10.9689  11.9242  12.4341  13.3565  18.9702  21.2206  21.3031
    21.5056  27.3041  28.5540  28.5627  29.0716

          k =-0.3300-0.7071 0.0000 (   876 PWs)   bands (ev):

   -66.9168 -35.7563 -35.7500 -35.7446  -1.7908   5.9415   6.5442   7.6306
    10.0553  10.9727  11.9241  12.4317  13.3497  18.9360  21.0237  21.3523
    21.7125  27.3008  28.5081  28.5960  29.0463

          k =-0.3064-0.7071 0.0000 (   872 PWs)   bands (ev):

   -66.9168 -35.7566 -35.7497 -35.7446  -1.7909   5.8694   6.6280   7.6350
    10.0576  10.9843  11.9236  12.4248  13.3293  18.8423  20.7420  21.4911
    22.0247  27.2913  28.4488  28.6177  28.9788

          k =-0.2828-0.7071 0.0000 (   876 PWs)   bands (ev):

   -66.9168 -35.7571 -35.7492 -35.7447  -1.7911   5.7784   6.7377   7.6421
    10.0608  11.0037  11.9224  12.4123  13.2952  18.7072  20.4641  21.6995
    22.3521  27.2749  28.3822  28.6206  28.8854

          k =-0.2593-0.7071 0.0000 (   876 PWs)   bands (ev):

   -66.9168 -35.7576 -35.7487 -35.7446  -1.7913   5.6823   6.8592   7.6517
    10.0654  11.0313  11.9214  12.3957  13.2476  18.5507  20.1999  21.9574
    22.6868  27.2525  28.3103  28.6024  28.7802

          k =-0.2357-0.7071-0.0000 (   870 PWs)   bands (ev):

   -66.9168 -35.7581 -35.7481 -35.7446  -1.7916   5.5877   6.9849   7.6633
    10.0713  11.0676  11.9210  12.3755  13.1867  18.3874  19.9531  22.2487
    23.0257  27.2242  28.2337  28.5622  28.6719

          k =-0.2121-0.7071 0.0000 (   868 PWs)   bands (ev):

   -66.9168 -35.7587 -35.7475 -35.7445  -1.7919   5.4977   7.1100   7.6766
    10.0782  11.1130  11.9193  12.3523  13.1126  18.2264  19.7244  22.5612
    23.3661  27.1900  28.1511  28.5007  28.5658

          k =-0.1886-0.7071 0.0000 (   860 PWs)   bands (ev):

   -66.9168 -35.7591 -35.7469 -35.7445  -1.7922   5.4145   7.2311   7.6908
    10.0859  11.1688  11.9185  12.3263  13.0269  18.0742  19.5168  22.8852
    23.7066  27.1497  28.0593  28.4232  28.4652

          k =-0.1650-0.7071 0.0000 (   862 PWs)   bands (ev):

   -66.9168 -35.7597 -35.7464 -35.7445  -1.7926   5.3391   7.3452   7.7054
    10.0940  11.2335  11.9171  12.2984  12.9284  17.9349  19.3312  23.2123
    24.0449  27.1034  27.9510  28.3376  28.3720

          k =-0.1414-0.7071-0.0000 (   854 PWs)   bands (ev):

   -66.9168 -35.7601 -35.7459 -35.7445  -1.7929   5.2727   7.4500   7.7199
    10.1028  11.3088  11.9160  12.2715  12.8202  17.8118  19.1693  23.5347
    24.3800  27.0518  27.8182  28.2556  28.2883

          k =-0.1179-0.7071 0.0000 (   858 PWs)   bands (ev):

   -66.9168 -35.7605 -35.7455 -35.7445  -1.7932   5.2155   7.5428   7.7334
    10.1108  11.3930  11.9151  12.2443  12.7025  17.7052  19.0311  23.8431
    24.7087  26.9946  27.6561  28.1852  28.2148

          k =-0.0943-0.7071 0.0000 (   854 PWs)   bands (ev):

   -66.9167 -35.7609 -35.7451 -35.7445  -1.7935   5.1683   7.6219   7.7454
    10.1189  11.4864  11.9151  12.2197  12.5792  17.6184  18.9185  24.1275
    25.0288  26.9338  27.4669  28.1302  28.1528

          k =-0.0707-0.7071 0.0000 (   856 PWs)   bands (ev):

   -66.9168 -35.7612 -35.7448 -35.7445  -1.7937   5.1311   7.6853   7.7554
    10.1256  11.5859  11.9157  12.1989  12.4528  17.5497  18.8299  24.3753
    25.3351  26.8727  27.2578  28.0891  28.1033

          k =-0.0471-0.7071 0.0000 (   846 PWs)   bands (ev):

   -66.9167 -35.7613 -35.7446 -35.7444  -1.7939   5.1046   7.7316   7.7631
    10.1309  11.6860  11.9202  12.1847  12.3298  17.5009  18.7671  24.5715
    25.6177  26.8178  27.0426  28.0610  28.0682

          k =-0.0236-0.7071-0.0000 (   846 PWs)   bands (ev):

   -66.9167 -35.7614 -35.7444 -35.7444  -1.7940   5.0885   7.7598   7.7677
    10.1341  11.7694  11.9318  12.1748  12.2225  17.4712  18.7292  24.6992
    25.8478  26.7781  26.8518  28.0444  28.0463

          k = 0.0000-0.7071 0.0000 (   846 PWs)   bands (ev):

   -66.9167 -35.7615 -35.7444 -35.7444  -1.7940   5.0832   7.7693   7.7693
    10.1352  11.8033  11.9448  12.1714  12.1715  17.4613  18.7165  24.7438
    25.9490  26.7635  26.7635  28.0390  28.0390

     Writing all to output data dir ./temp/mns.save/ :
     XML data file, pseudopotentials, collected wavefunctions

     init_run     :      0.56s CPU      0.60s WALL (       1 calls)
     electrons    :     87.95s CPU     89.80s WALL (       1 calls)

     Called by init_run:
     wfcinit      :      0.00s CPU      0.00s WALL (       1 calls)
     wfcinit:atom :      0.03s CPU      0.03s WALL (     562 calls)
     wfcinit:wfcr :      1.89s CPU      1.96s WALL (     562 calls)
     potinit      :      0.27s CPU      0.31s WALL (       1 calls)
     hinit0       :      0.24s CPU      0.24s WALL (       1 calls)

     Called by electrons:
     c_bands      :     87.94s CPU     89.79s WALL (       1 calls)
     v_of_rho     :      0.01s CPU      0.01s WALL (       1 calls)
     v_h          :      0.00s CPU      0.00s WALL (       1 calls)
     v_xc         :      0.01s CPU      0.01s WALL (       1 calls)
     newd         :      0.02s CPU      0.02s WALL (       1 calls)
     PAW_pot      :      0.21s CPU      0.25s WALL (       1 calls)

     Called by c_bands:
     init_us_2    :      0.05s CPU      0.05s WALL (     562 calls)
     cegterg      :     85.78s CPU     87.55s WALL (    1657 calls)

     Called by sum_band:

     Called by *egterg:
     cdiaghg      :     17.96s CPU     18.24s WALL (   28824 calls)
     cegterg:over :      8.03s CPU      8.27s WALL (   28262 calls)
     cegterg:upda :      3.56s CPU      3.58s WALL (   28262 calls)
     cegterg:last :     10.08s CPU     10.12s WALL (   15030 calls)
     h_psi        :     41.49s CPU     42.63s WALL (   30481 calls)
     s_psi        :      3.66s CPU      3.77s WALL (   30481 calls)
     g_psi        :      0.17s CPU      0.17s WALL (   28262 calls)

     Called by h_psi:
     h_psi:calbec :      4.22s CPU      4.38s WALL (   30481 calls)
     vloc_psi     :     33.39s CPU     34.25s WALL (   30481 calls)
     add_vuspsi   :      3.68s CPU      3.80s WALL (   30481 calls)

     General routines
     calbec       :      4.18s CPU      4.34s WALL (   30481 calls)
     fft          :      0.11s CPU      0.11s WALL (      23 calls)
     ffts         :      0.05s CPU      0.05s WALL (       2 calls)
     fftw         :     30.79s CPU     31.58s WALL (  659564 calls)
     interpolate  :      0.05s CPU      0.05s WALL (       2 calls)
     davcio       :      0.05s CPU      0.06s WALL (    1124 calls)

     Parallel routines

     PAW routines
     PAW_pot      :      0.21s CPU      0.25s WALL (       1 calls)

     PWSCF        :   1m29.28s CPU   1m31.31s WALL


   This run was terminated on:  13:33:39  30Jan2025            

=------------------------------------------------------------------------------=
   JOB DONE.
=------------------------------------------------------------------------------=
