
     Program PWSCF v.7.3.1 starts on 30Jan2025 at 13:29:56 

     This program is part of the open-source Quantum ESPRESSO suite
     for quantum simulation of materials; please cite
         "P. Giannozzi et al., J. Phys.:Condens. Matter 21 395502 (2009);
         "P. Giannozzi et al., J. Phys.:Condens. Matter 29 465901 (2017);
         "P. Giannozzi et al., J. Chem. Phys. 152 154105 (2020);
          URL http://www.quantum-espresso.org", 
     in publications or presentations arising from this work. More details at
     http://www.quantum-espresso.org/quote

     Parallel version (MPI), running on     6 processors

     MPI processes distributed on     1 nodes
     1571 MiB available memory on the printing compute node when the environment starts

     Reading input from nscf.in

     Current dimensions of program PWSCF are:
     Max number of different atomic species (ntypx) = 10
     Max number of k-points (npk) =  40000
     Max angular momentum in pseudopotentials (lmaxx) =  4
     file Mn.pbe-spn-kjpaw_psl.0.3.1.UPF: wavefunction(s)  3P 3D renormalized
     file S.pbe-n-kjpaw_psl.1.0.0.UPF: wavefunction(s)  3S 3P renormalized

     Atomic positions and unit cell read from directory:
     ./temp/mns.save/


     R & G space division:  proc/nbgrp/npool/nimage =       6
     Subspace diagonalization in iterative solution of the eigenvalue problem:
     a serial algorithm will be used


     Parallelization info
     --------------------
     sticks:   dense  smooth     PW     G-vecs:    dense   smooth      PW
     Min          90      79     25                 1381     1142     206
     Max          92      80     26                 1382     1145     209
     Sum         547     475    151                 8291     6855    1243

     Using Slab Decomposition



     bravais-lattice index     =           -5
     lattice parameter (alat)  =       6.5874  a.u.
     unit-cell volume          =     202.1308 (a.u.)^3
     number of atoms/cell      =            2
     number of atomic types    =            2
     number of electrons       =        21.00
     number of Kohn-Sham states=           15
     kinetic-energy cutoff     =      40.0000  Ry
     charge density cutoff     =     180.0000  Ry
     Exchange-correlation= SLA  PW   PBX  PBC
                           (   1   4   3   4   0   0   0)

     celldm(1)=   6.587427  celldm(2)=   0.000000  celldm(3)=   0.000000
     celldm(4)=   0.500000  celldm(5)=   0.000000  celldm(6)=   0.000000

     crystal axes: (cart. coord. in units of alat)
               a(1) = (   0.000000   0.707107   0.707107 )  
               a(2) = (   0.707107   0.000000   0.707107 )  
               a(3) = (   0.707107   0.707107   0.000000 )  

     reciprocal axes: (cart. coord. in units 2 pi/alat)
               b(1) = ( -0.707107  0.707107  0.707107 )  
               b(2) = (  0.707107 -0.707107  0.707107 )  
               b(3) = (  0.707107  0.707107 -0.707107 )  


     PseudoPot. # 1 for Mn read from file:
     ./../../pseudos/Mn.pbe-spn-kjpaw_psl.0.3.1.UPF
     MD5 check sum: ba19e6d7ccbc12830efad05ba8577d9c
     Pseudo is Projector augmented-wave + core cor, Zval = 15.0
     Generated using &quot;atomic&quot; code by A. Dal Corso  v.6.2.2
     Shape of augmentation charge: PSQ
     Using radial grid of 1187 points,  6 beta functions with: 
                l(1) =   0
                l(2) =   0
                l(3) =   1
                l(4) =   1
                l(5) =   2
                l(6) =   2
     Q(r) pseudized with 0 coefficients 


     PseudoPot. # 2 for S  read from file:
     ./../../pseudos/S.pbe-n-kjpaw_psl.1.0.0.UPF
     MD5 check sum: fb45dfebcf3e72a4e1bd4a866ec2e262
     Pseudo is Projector augmented-wave + core cor, Zval =  6.0
     Generated using &quot;atomic&quot; code by A. Dal Corso  v.6.3
     Shape of augmentation charge: PSQ
     Using radial grid of 1151 points,  6 beta functions with: 
                l(1) =   0
                l(2) =   0
                l(3) =   1
                l(4) =   1
                l(5) =   2
                l(6) =   2
     Q(r) pseudized with 0 coefficients 


     atomic species   valence    mass     pseudopotential
     Mn               15.00    54.93800     Mn( 1.00)
     S                 6.00    32.06500     S ( 1.00)

     Starting magnetic structure 
     atomic species   magnetization
     Mn              0.200
     S               0.000

     24 Sym. Ops. (no inversion) found


                                    s                        frac. trans.

      isym =  1     identity                                     

 cryst.   s( 1) = (     1          0          0      )
                  (     0          1          0      )
                  (     0          0          1      )

 cart.    s( 1) = (  1.0000000  0.0000000  0.0000000 )
                  (  0.0000000  1.0000000  0.0000000 )
                  (  0.0000000  0.0000000  1.0000000 )


      isym =  2     180 deg rotation - cart. axis [0,0,1]        

 cryst.   s( 2) = (     0          1         -1      )
                  (     1          0         -1      )
                  (     0          0         -1      )

 cart.    s( 2) = ( -1.0000000  0.0000000  0.0000000 )
                  (  0.0000000 -1.0000000  0.0000000 )
                  (  0.0000000  0.0000000  1.0000000 )


      isym =  3     180 deg rotation - cart. axis [0,1,0]        

 cryst.   s( 3) = (     0         -1          1      )
                  (     0         -1          0      )
                  (     1         -1          0      )

 cart.    s( 3) = ( -1.0000000  0.0000000  0.0000000 )
                  (  0.0000000  1.0000000  0.0000000 )
                  (  0.0000000  0.0000000 -1.0000000 )


      isym =  4     180 deg rotation - cart. axis [1,0,0]        

 cryst.   s( 4) = (    -1          0          0      )
                  (    -1          0          1      )
                  (    -1          1          0      )

 cart.    s( 4) = (  1.0000000  0.0000000  0.0000000 )
                  (  0.0000000 -1.0000000  0.0000000 )
                  (  0.0000000  0.0000000 -1.0000000 )


      isym =  5     120 deg rotation - cart. axis [-1,-1,-1]     

 cryst.   s( 5) = (     0          0          1      )
                  (     1          0          0      )
                  (     0          1          0      )

 cart.    s( 5) = (  0.0000000  1.0000000  0.0000000 )
                  (  0.0000000  0.0000000  1.0000000 )
                  (  1.0000000  0.0000000  0.0000000 )


      isym =  6     120 deg rotation - cart. axis [-1,1,1]       

 cryst.   s( 6) = (     1         -1          0      )
                  (     0         -1          1      )
                  (     0         -1          0      )

 cart.    s( 6) = (  0.0000000 -1.0000000  0.0000000 )
                  (  0.0000000  0.0000000  1.0000000 )
                  ( -1.0000000  0.0000000  0.0000000 )


      isym =  7     120 deg rotation - cart. axis [1,1,-1]       

 cryst.   s( 7) = (    -1          1          0      )
                  (    -1          0          0      )
                  (    -1          0          1      )

 cart.    s( 7) = (  0.0000000  1.0000000  0.0000000 )
                  (  0.0000000  0.0000000 -1.0000000 )
                  ( -1.0000000  0.0000000  0.0000000 )


      isym =  8     120 deg rotation - cart. axis [1,-1,1]       

 cryst.   s( 8) = (     0          0         -1      )
                  (     0          1         -1      )
                  (     1          0         -1      )

 cart.    s( 8) = (  0.0000000 -1.0000000  0.0000000 )
                  (  0.0000000  0.0000000 -1.0000000 )
                  (  1.0000000  0.0000000  0.0000000 )


      isym =  9     120 deg rotation - cart. axis [1,1,1]        

 cryst.   s( 9) = (     0          1          0      )
                  (     0          0          1      )
                  (     1          0          0      )

 cart.    s( 9) = (  0.0000000  0.0000000  1.0000000 )
                  (  1.0000000  0.0000000  0.0000000 )
                  (  0.0000000  1.0000000  0.0000000 )


      isym = 10     120 deg rotation - cart. axis [-1,1,-1]      

 cryst.   s(10) = (    -1          0          1      )
                  (    -1          1          0      )
                  (    -1          0          0      )

 cart.    s(10) = (  0.0000000  0.0000000  1.0000000 )
                  ( -1.0000000  0.0000000  0.0000000 )
                  (  0.0000000 -1.0000000  0.0000000 )


      isym = 11     120 deg rotation - cart. axis [1,-1,-1]      

 cryst.   s(11) = (     1          0         -1      )
                  (     0          0         -1      )
                  (     0          1         -1      )

 cart.    s(11) = (  0.0000000  0.0000000 -1.0000000 )
                  ( -1.0000000  0.0000000  0.0000000 )
                  (  0.0000000  1.0000000  0.0000000 )


      isym = 12     120 deg rotation - cart. axis [-1,-1,1]      

 cryst.   s(12) = (     0         -1          0      )
                  (     1         -1          0      )
                  (     0         -1          1      )

 cart.    s(12) = (  0.0000000  0.0000000 -1.0000000 )
                  (  1.0000000  0.0000000  0.0000000 )
                  (  0.0000000 -1.0000000  0.0000000 )


      isym = 13     inv. 180 deg rotation - cart. axis [1,1,0]   

 cryst.   s(13) = (     1          0         -1      )
                  (     0          1         -1      )
                  (     0          0         -1      )

 cart.    s(13) = (  0.0000000 -1.0000000  0.0000000 )
                  ( -1.0000000  0.0000000  0.0000000 )
                  (  0.0000000  0.0000000  1.0000000 )


      isym = 14     inv. 180 deg rotation - cart. axis [1,-1,0]  

 cryst.   s(14) = (     0          1          0      )
                  (     1          0          0      )
                  (     0          0          1      )

 cart.    s(14) = (  0.0000000  1.0000000  0.0000000 )
                  (  1.0000000  0.0000000  0.0000000 )
                  (  0.0000000  0.0000000  1.0000000 )


      isym = 15     inv.  90 deg rotation - cart. axis [0,0,-1]  

 cryst.   s(15) = (     0         -1          0      )
                  (     0         -1          1      )
                  (     1         -1          0      )

 cart.    s(15) = (  0.0000000 -1.0000000  0.0000000 )
                  (  1.0000000  0.0000000  0.0000000 )
                  (  0.0000000  0.0000000 -1.0000000 )


      isym = 16     inv.  90 deg rotation - cart. axis [0,0,1]   

 cryst.   s(16) = (    -1          0          1      )
                  (    -1          0          0      )
                  (    -1          1          0      )

 cart.    s(16) = (  0.0000000  1.0000000  0.0000000 )
                  ( -1.0000000  0.0000000  0.0000000 )
                  (  0.0000000  0.0000000 -1.0000000 )


      isym = 17     inv. 180 deg rotation - cart. axis [1,0,1]   

 cryst.   s(17) = (     1         -1          0      )
                  (     0         -1          0      )
                  (     0         -1          1      )

 cart.    s(17) = (  0.0000000  0.0000000 -1.0000000 )
                  (  0.0000000  1.0000000  0.0000000 )
                  ( -1.0000000  0.0000000  0.0000000 )


      isym = 18     inv. 180 deg rotation - cart. axis [-1,0,1]  

 cryst.   s(18) = (     0          0          1      )
                  (     0          1          0      )
                  (     1          0          0      )

 cart.    s(18) = (  0.0000000  0.0000000  1.0000000 )
                  (  0.0000000  1.0000000  0.0000000 )
                  (  1.0000000  0.0000000  0.0000000 )


      isym = 19     inv.  90 deg rotation - cart. axis [0,1,0]   

 cryst.   s(19) = (     0          0         -1      )
                  (     1          0         -1      )
                  (     0          1         -1      )

 cart.    s(19) = (  0.0000000  0.0000000 -1.0000000 )
                  (  0.0000000 -1.0000000  0.0000000 )
                  (  1.0000000  0.0000000  0.0000000 )


      isym = 20     inv.  90 deg rotation - cart. axis [0,-1,0]  

 cryst.   s(20) = (    -1          1          0      )
                  (    -1          0          1      )
                  (    -1          0          0      )

 cart.    s(20) = (  0.0000000  0.0000000  1.0000000 )
                  (  0.0000000 -1.0000000  0.0000000 )
                  ( -1.0000000  0.0000000  0.0000000 )


      isym = 21     inv. 180 deg rotation - cart. axis [0,1,1]   

 cryst.   s(21) = (    -1          0          0      )
                  (    -1          1          0      )
                  (    -1          0          1      )

 cart.    s(21) = (  1.0000000  0.0000000  0.0000000 )
                  (  0.0000000  0.0000000 -1.0000000 )
                  (  0.0000000 -1.0000000  0.0000000 )


      isym = 22     inv. 180 deg rotation - cart. axis [0,1,-1]  

 cryst.   s(22) = (     1          0          0      )
                  (     0          0          1      )
                  (     0          1          0      )

 cart.    s(22) = (  1.0000000  0.0000000  0.0000000 )
                  (  0.0000000  0.0000000  1.0000000 )
                  (  0.0000000  1.0000000  0.0000000 )


      isym = 23     inv.  90 deg rotation - cart. axis [-1,0,0]  

 cryst.   s(23) = (     0          1         -1      )
                  (     0          0         -1      )
                  (     1          0         -1      )

 cart.    s(23) = ( -1.0000000  0.0000000  0.0000000 )
                  (  0.0000000  0.0000000 -1.0000000 )
                  (  0.0000000  1.0000000  0.0000000 )


      isym = 24     inv.  90 deg rotation - cart. axis [1,0,0]   

 cryst.   s(24) = (     0         -1          1      )
                  (     1         -1          0      )
                  (     0         -1          0      )

 cart.    s(24) = ( -1.0000000  0.0000000  0.0000000 )
                  (  0.0000000  0.0000000  1.0000000 )
                  (  0.0000000 -1.0000000  0.0000000 )


     point group T_d (-43m) 
     there are  5 classes
     the character table:

       E     8C3   3C2   6S4   6s_d 
A_1    1.00  1.00  1.00  1.00  1.00
A_2    1.00  1.00  1.00 -1.00 -1.00
E      2.00 -1.00  2.00  0.00  0.00
T_1    3.00  0.00 -1.00  1.00 -1.00
T_2    3.00  0.00 -1.00 -1.00  1.00

     the symmetry operations in each class and the name of the first element:

     E        1
          identity                                               
     8C3      5    7    8    6   12    9   10   11
          120 deg rotation - cart. axis [-1,-1,-1]               
     3C2      2    3    4
          180 deg rotation - cart. axis [0,0,1]                  
     6S4     15   16   20   19   23   24
          inv.  90 deg rotation - cart. axis [0,0,-1]            
     6s_d    13   14   17   18   21   22
          inv. 180 deg rotation - cart. axis [1,1,0]             

   Cartesian axes

     site n.     atom                  positions (alat units)
         1        Mn     tau(   1) = (   1.0606597   1.0606597   1.0606597  )
         2        S      tau(   2) = (   0.0000000   0.0000000   0.0000000  )

   Crystallographic axes

     site n.     atom                  positions (cryst. coord.)
         1        Mn     tau(   1) = (  0.7499996  0.7499996  0.7499996  )
         2        S      tau(   2) = (  0.0000000  0.0000000  0.0000000  )

     number of k points=    72  Gaussian smearing, width (Ry)=  0.0100
                       cart. coord. in units 2pi/alat
        k(    1) = (   0.0000000   0.0000000   0.0000000), wk =   0.0005787
        k(    2) = (   0.0589256   0.0589256  -0.0589256), wk =   0.0046296
        k(    3) = (   0.1178511   0.1178511  -0.1178511), wk =   0.0046296
        k(    4) = (   0.1767767   0.1767767  -0.1767767), wk =   0.0046296
        k(    5) = (   0.2357023   0.2357023  -0.2357023), wk =   0.0046296
        k(    6) = (   0.2946278   0.2946278  -0.2946278), wk =   0.0046296
        k(    7) = (  -0.3535534  -0.3535534   0.3535534), wk =   0.0023148
        k(    8) = (   0.1178511   0.0000000   0.0000000), wk =   0.0034722
        k(    9) = (   0.1767767   0.0589256  -0.0589256), wk =   0.0138889
        k(   10) = (   0.2357023   0.1178511  -0.1178511), wk =   0.0138889
        k(   11) = (   0.2946278   0.1767767  -0.1767767), wk =   0.0138889
        k(   12) = (   0.3535534   0.2357023  -0.2357023), wk =   0.0138889
        k(   13) = (  -0.2946278  -0.4124790   0.4124790), wk =   0.0138889
        k(   14) = (  -0.2357023  -0.3535534   0.3535534), wk =   0.0138889
        k(   15) = (  -0.1767767  -0.2946278   0.2946278), wk =   0.0138889
        k(   16) = (  -0.1178511  -0.2357023   0.2357023), wk =   0.0138889
        k(   17) = (  -0.0589256  -0.1767767   0.1767767), wk =   0.0138889
        k(   18) = (  -0.0000000  -0.1178511   0.1178511), wk =   0.0069444
        k(   19) = (   0.2357023   0.0000000   0.0000000), wk =   0.0034722
        k(   20) = (   0.2946278   0.0589256  -0.0589256), wk =   0.0138889
        k(   21) = (   0.3535534   0.1178511  -0.1178511), wk =   0.0138889
        k(   22) = (   0.4124790   0.1767767  -0.1767767), wk =   0.0138889
        k(   23) = (  -0.2357023  -0.4714045   0.4714045), wk =   0.0138889
        k(   24) = (  -0.1767767  -0.4124790   0.4124790), wk =   0.0138889
        k(   25) = (  -0.1178511  -0.3535534   0.3535534), wk =   0.0138889
        k(   26) = (  -0.0589256  -0.2946278   0.2946278), wk =   0.0138889
        k(   27) = (   0.0000000  -0.2357023   0.2357023), wk =   0.0069444
        k(   28) = (   0.3535534   0.0000000   0.0000000), wk =   0.0034722
        k(   29) = (   0.4124790   0.0589256  -0.0589256), wk =   0.0138889
        k(   30) = (   0.4714045   0.1178511  -0.1178511), wk =   0.0138889
        k(   31) = (  -0.1767767  -0.5303301   0.5303301), wk =   0.0138889
        k(   32) = (  -0.1178511  -0.4714045   0.4714045), wk =   0.0138889
        k(   33) = (  -0.0589256  -0.4124790   0.4124790), wk =   0.0138889
        k(   34) = (   0.0000000  -0.3535534   0.3535534), wk =   0.0069444
        k(   35) = (   0.4714045   0.0000000   0.0000000), wk =   0.0034722
        k(   36) = (   0.5303301   0.0589256  -0.0589256), wk =   0.0138889
        k(   37) = (  -0.1178511  -0.5892557   0.5892557), wk =   0.0138889
        k(   38) = (  -0.0589256  -0.5303301   0.5303301), wk =   0.0138889
        k(   39) = (  -0.0000000  -0.4714045   0.4714045), wk =   0.0069444
        k(   40) = (   0.5892557   0.0000000   0.0000000), wk =   0.0034722
        k(   41) = (  -0.0589256  -0.6481812   0.6481812), wk =   0.0138889
        k(   42) = (   0.0000000  -0.5892557   0.5892557), wk =   0.0069444
        k(   43) = (  -0.7071068   0.0000000   0.0000000), wk =   0.0017361
        k(   44) = (   0.2357023   0.1178511  -0.0000000), wk =   0.0138889
        k(   45) = (   0.2946278   0.1767767  -0.0589256), wk =   0.0277778
        k(   46) = (   0.3535534   0.2357023  -0.1178511), wk =   0.0277778
        k(   47) = (  -0.2946278  -0.4124790   0.5303301), wk =   0.0277778
        k(   48) = (  -0.2357023  -0.3535534   0.4714045), wk =   0.0138889
        k(   49) = (   0.3535534   0.1178511   0.0000000), wk =   0.0138889
        k(   50) = (   0.4124790   0.1767767  -0.0589256), wk =   0.0277778
        k(   51) = (  -0.2357023  -0.4714045   0.5892557), wk =   0.0277778
        k(   52) = (  -0.1767767  -0.4124790   0.5303301), wk =   0.0277778
        k(   53) = (  -0.1178511  -0.3535534   0.4714045), wk =   0.0277778
        k(   54) = (  -0.0589256  -0.2946278   0.4124790), wk =   0.0277778
        k(   55) = (   0.0000000  -0.2357023   0.3535534), wk =   0.0138889
        k(   56) = (   0.4714045   0.1178511   0.0000000), wk =   0.0138889
        k(   57) = (  -0.1767767  -0.5303301   0.6481812), wk =   0.0277778
        k(   58) = (  -0.1178511  -0.4714045   0.5892557), wk =   0.0277778
        k(   59) = (  -0.0589256  -0.4124790   0.5303301), wk =   0.0277778
        k(   60) = (  -0.0000000  -0.3535534   0.4714045), wk =   0.0138889
        k(   61) = (  -0.1178511  -0.5892557   0.7071068), wk =   0.0138889
        k(   62) = (  -0.0589256  -0.5303301   0.6481812), wk =   0.0277778
        k(   63) = (  -0.0000000  -0.4714045   0.5892557), wk =   0.0138889
        k(   64) = (  -0.7071068   0.1178511   0.0000000), wk =   0.0069444
        k(   65) = (  -0.2357023  -0.4714045   0.7071068), wk =   0.0138889
        k(   66) = (  -0.1767767  -0.4124790   0.6481812), wk =   0.0277778
        k(   67) = (  -0.1178511  -0.3535534   0.5892557), wk =   0.0138889
        k(   68) = (  -0.1178511  -0.4714045   0.7071068), wk =   0.0138889
        k(   69) = (  -0.0589256  -0.4124790   0.6481812), wk =   0.0277778
        k(   70) = (   0.0000000  -0.3535534   0.5892557), wk =   0.0138889
        k(   71) = (  -0.7071068   0.2357023   0.0000000), wk =   0.0069444
        k(   72) = (  -0.7071068   0.3535534   0.0000000), wk =   0.0034722

                       cryst. coord.
        k(    1) = (   0.0000000   0.0000000   0.0000000), wk =   0.0005787
        k(    2) = (   0.0000000   0.0000000   0.0833333), wk =   0.0046296
        k(    3) = (   0.0000000   0.0000000   0.1666667), wk =   0.0046296
        k(    4) = (   0.0000000   0.0000000   0.2500000), wk =   0.0046296
        k(    5) = (   0.0000000   0.0000000   0.3333333), wk =   0.0046296
        k(    6) = (   0.0000000   0.0000000   0.4166667), wk =   0.0046296
        k(    7) = (   0.0000000   0.0000000  -0.5000000), wk =   0.0023148
        k(    8) = (   0.0000000   0.0833333   0.0833333), wk =   0.0034722
        k(    9) = (   0.0000000   0.0833333   0.1666667), wk =   0.0138889
        k(   10) = (   0.0000000   0.0833333   0.2500000), wk =   0.0138889
        k(   11) = (   0.0000000   0.0833333   0.3333333), wk =   0.0138889
        k(   12) = (   0.0000000   0.0833333   0.4166667), wk =   0.0138889
        k(   13) = (   0.0000000   0.0833333  -0.5000000), wk =   0.0138889
        k(   14) = (   0.0000000   0.0833333  -0.4166667), wk =   0.0138889
        k(   15) = (   0.0000000   0.0833333  -0.3333333), wk =   0.0138889
        k(   16) = (   0.0000000   0.0833333  -0.2500000), wk =   0.0138889
        k(   17) = (   0.0000000   0.0833333  -0.1666667), wk =   0.0138889
        k(   18) = (   0.0000000   0.0833333  -0.0833333), wk =   0.0069444
        k(   19) = (   0.0000000   0.1666667   0.1666667), wk =   0.0034722
        k(   20) = (   0.0000000   0.1666667   0.2500000), wk =   0.0138889
        k(   21) = (   0.0000000   0.1666667   0.3333333), wk =   0.0138889
        k(   22) = (   0.0000000   0.1666667   0.4166667), wk =   0.0138889
        k(   23) = (   0.0000000   0.1666667  -0.5000000), wk =   0.0138889
        k(   24) = (   0.0000000   0.1666667  -0.4166667), wk =   0.0138889
        k(   25) = (   0.0000000   0.1666667  -0.3333333), wk =   0.0138889
        k(   26) = (   0.0000000   0.1666667  -0.2500000), wk =   0.0138889
        k(   27) = (   0.0000000   0.1666667  -0.1666667), wk =   0.0069444
        k(   28) = (   0.0000000   0.2500000   0.2500000), wk =   0.0034722
        k(   29) = (   0.0000000   0.2500000   0.3333333), wk =   0.0138889
        k(   30) = (   0.0000000   0.2500000   0.4166667), wk =   0.0138889
        k(   31) = (   0.0000000   0.2500000  -0.5000000), wk =   0.0138889
        k(   32) = (   0.0000000   0.2500000  -0.4166667), wk =   0.0138889
        k(   33) = (   0.0000000   0.2500000  -0.3333333), wk =   0.0138889
        k(   34) = (   0.0000000   0.2500000  -0.2500000), wk =   0.0069444
        k(   35) = (   0.0000000   0.3333333   0.3333333), wk =   0.0034722
        k(   36) = (   0.0000000   0.3333333   0.4166667), wk =   0.0138889
        k(   37) = (   0.0000000   0.3333333  -0.5000000), wk =   0.0138889
        k(   38) = (   0.0000000   0.3333333  -0.4166667), wk =   0.0138889
        k(   39) = (   0.0000000   0.3333333  -0.3333333), wk =   0.0069444
        k(   40) = (   0.0000000   0.4166667   0.4166667), wk =   0.0034722
        k(   41) = (   0.0000000   0.4166667  -0.5000000), wk =   0.0138889
        k(   42) = (   0.0000000   0.4166667  -0.4166667), wk =   0.0069444
        k(   43) = (   0.0000000  -0.5000000  -0.5000000), wk =   0.0017361
        k(   44) = (   0.0833333   0.1666667   0.2500000), wk =   0.0138889
        k(   45) = (   0.0833333   0.1666667   0.3333333), wk =   0.0277778
        k(   46) = (   0.0833333   0.1666667   0.4166667), wk =   0.0277778
        k(   47) = (   0.0833333   0.1666667  -0.5000000), wk =   0.0277778
        k(   48) = (   0.0833333   0.1666667  -0.4166667), wk =   0.0138889
        k(   49) = (   0.0833333   0.2500000   0.3333333), wk =   0.0138889
        k(   50) = (   0.0833333   0.2500000   0.4166667), wk =   0.0277778
        k(   51) = (   0.0833333   0.2500000  -0.5000000), wk =   0.0277778
        k(   52) = (   0.0833333   0.2500000  -0.4166667), wk =   0.0277778
        k(   53) = (   0.0833333   0.2500000  -0.3333333), wk =   0.0277778
        k(   54) = (   0.0833333   0.2500000  -0.2500000), wk =   0.0277778
        k(   55) = (   0.0833333   0.2500000  -0.1666667), wk =   0.0138889
        k(   56) = (   0.0833333   0.3333333   0.4166667), wk =   0.0138889
        k(   57) = (   0.0833333   0.3333333  -0.5000000), wk =   0.0277778
        k(   58) = (   0.0833333   0.3333333  -0.4166667), wk =   0.0277778
        k(   59) = (   0.0833333   0.3333333  -0.3333333), wk =   0.0277778
        k(   60) = (   0.0833333   0.3333333  -0.2500000), wk =   0.0138889
        k(   61) = (   0.0833333   0.4166667  -0.5000000), wk =   0.0138889
        k(   62) = (   0.0833333   0.4166667  -0.4166667), wk =   0.0277778
        k(   63) = (   0.0833333   0.4166667  -0.3333333), wk =   0.0138889
        k(   64) = (   0.0833333  -0.5000000  -0.4166667), wk =   0.0069444
        k(   65) = (   0.1666667   0.3333333  -0.5000000), wk =   0.0138889
        k(   66) = (   0.1666667   0.3333333  -0.4166667), wk =   0.0277778
        k(   67) = (   0.1666667   0.3333333  -0.3333333), wk =   0.0138889
        k(   68) = (   0.1666667   0.4166667  -0.4166667), wk =   0.0138889
        k(   69) = (   0.1666667   0.4166667  -0.3333333), wk =   0.0277778
        k(   70) = (   0.1666667   0.4166667  -0.2500000), wk =   0.0138889
        k(   71) = (   0.1666667  -0.5000000  -0.3333333), wk =   0.0069444
        k(   72) = (   0.2500000  -0.5000000  -0.2500000), wk =   0.0034722

     Dense  grid:     8291 G-vectors     FFT dimensions: (  30,  30,  30)

     Smooth grid:     6855 G-vectors     FFT dimensions: (  27,  27,  27)

     Dynamical RAM for                 wfc:       0.03 MB

     Dynamical RAM for     wfc (w. buffer):       0.03 MB

     Dynamical RAM for           str. fact:       0.04 MB

     Dynamical RAM for           local pot:       0.00 MB

     Dynamical RAM for          nlocal pot:       0.08 MB

     Dynamical RAM for                qrad:       2.15 MB

     Dynamical RAM for          rho,v,vnew:       0.33 MB

     Dynamical RAM for           G-vectors:       0.09 MB

     Dynamical RAM for          h,s,v(r/c):       0.04 MB

     Dynamical RAM for          <psi|beta>:       0.01 MB

     Dynamical RAM for                 psi:       0.07 MB

     Dynamical RAM for                hpsi:       0.07 MB

     Dynamical RAM for                spsi:       0.07 MB

     Dynamical RAM for      wfcinit/wfcrot:       0.07 MB

     Dynamical RAM for           addusdens:       3.96 MB

     Estimated static dynamical RAM per process >       3.00 MB

     Estimated max dynamical RAM per process >       6.96 MB

     Estimated total dynamical RAM >      41.78 MB

     Check: negative core charge=   -0.000107
     Generating pointlists ...
     new r_m :   0.2526 (alat units)  1.6640 (a.u.) for type    1
     new r_m :   0.2526 (alat units)  1.6640 (a.u.) for type    2

     The potential is recalculated from file :
     ./temp/mns.save/charge-density

     Starting wfcs are   14 randomized atomic wfcs +    1 random wfcs
     Checking if some PAW data can be deallocated... 
       PAW data deallocated on    3 nodes for type:  1
       PAW data deallocated on    3 nodes for type:  2

     Band Structure Calculation
     Davidson diagonalization with overlap

     Computing kpt #:     1  of   144
     total cpu time spent up to now is        1.1 secs

     Computing kpt #:     2  of   144
     total cpu time spent up to now is        1.3 secs

     Computing kpt #:     3  of   144
     total cpu time spent up to now is        1.4 secs

     Computing kpt #:     4  of   144
     total cpu time spent up to now is        1.6 secs

     Computing kpt #:     5  of   144
     total cpu time spent up to now is        1.8 secs

     Computing kpt #:     6  of   144
     total cpu time spent up to now is        2.0 secs

     Computing kpt #:     7  of   144
     c_bands:  1 eigenvalues not converged
     total cpu time spent up to now is        2.3 secs

     Computing kpt #:     8  of   144
     total cpu time spent up to now is        2.4 secs

     Computing kpt #:     9  of   144
     total cpu time spent up to now is        2.6 secs

     Computing kpt #:    10  of   144
     total cpu time spent up to now is        2.8 secs

     Computing kpt #:    11  of   144
     total cpu time spent up to now is        3.0 secs

     Computing kpt #:    12  of   144
     total cpu time spent up to now is        3.1 secs

     Computing kpt #:    13  of   144
     total cpu time spent up to now is        3.3 secs

     Computing kpt #:    14  of   144
     total cpu time spent up to now is        3.4 secs

     Computing kpt #:    15  of   144
     total cpu time spent up to now is        3.5 secs

     Computing kpt #:    16  of   144
     total cpu time spent up to now is        3.6 secs

     Computing kpt #:    17  of   144
     total cpu time spent up to now is        3.7 secs

     Computing kpt #:    18  of   144
     total cpu time spent up to now is        3.8 secs

     Computing kpt #:    19  of   144
     total cpu time spent up to now is        3.9 secs

     Computing kpt #:    20  of   144
     total cpu time spent up to now is        4.0 secs

     Computing kpt #:    21  of   144
     total cpu time spent up to now is        4.1 secs

     Computing kpt #:    22  of   144
     total cpu time spent up to now is        4.2 secs

     Computing kpt #:    23  of   144
     total cpu time spent up to now is        4.3 secs

     Computing kpt #:    24  of   144
     total cpu time spent up to now is        4.4 secs

     Computing kpt #:    25  of   144
     total cpu time spent up to now is        4.6 secs

     Computing kpt #:    26  of   144
     total cpu time spent up to now is        4.7 secs

     Computing kpt #:    27  of   144
     total cpu time spent up to now is        4.8 secs

     Computing kpt #:    28  of   144
     total cpu time spent up to now is        4.9 secs

     Computing kpt #:    29  of   144
     total cpu time spent up to now is        5.0 secs

     Computing kpt #:    30  of   144
     total cpu time spent up to now is        5.1 secs

     Computing kpt #:    31  of   144
     total cpu time spent up to now is        5.2 secs

     Computing kpt #:    32  of   144
     total cpu time spent up to now is        5.3 secs

     Computing kpt #:    33  of   144
     total cpu time spent up to now is        5.4 secs

     Computing kpt #:    34  of   144
     total cpu time spent up to now is        5.5 secs

     Computing kpt #:    35  of   144
     total cpu time spent up to now is        5.6 secs

     Computing kpt #:    36  of   144
     total cpu time spent up to now is        5.7 secs

     Computing kpt #:    37  of   144
     total cpu time spent up to now is        5.8 secs

     Computing kpt #:    38  of   144
     total cpu time spent up to now is        5.9 secs

     Computing kpt #:    39  of   144
     total cpu time spent up to now is        6.0 secs

     Computing kpt #:    40  of   144
     total cpu time spent up to now is        6.1 secs

     Computing kpt #:    41  of   144
     total cpu time spent up to now is        6.2 secs

     Computing kpt #:    42  of   144
     total cpu time spent up to now is        6.3 secs

     Computing kpt #:    43  of   144
     total cpu time spent up to now is        6.4 secs

     Computing kpt #:    44  of   144
     total cpu time spent up to now is        6.5 secs

     Computing kpt #:    45  of   144
     total cpu time spent up to now is        6.6 secs

     Computing kpt #:    46  of   144
     total cpu time spent up to now is        6.8 secs

     Computing kpt #:    47  of   144
     total cpu time spent up to now is        6.9 secs

     Computing kpt #:    48  of   144
     total cpu time spent up to now is        7.0 secs

     Computing kpt #:    49  of   144
     total cpu time spent up to now is        7.1 secs

     Computing kpt #:    50  of   144
     total cpu time spent up to now is        7.3 secs

     Computing kpt #:    51  of   144
     total cpu time spent up to now is        7.4 secs

     Computing kpt #:    52  of   144
     total cpu time spent up to now is        7.5 secs

     Computing kpt #:    53  of   144
     total cpu time spent up to now is        7.6 secs

     Computing kpt #:    54  of   144
     total cpu time spent up to now is        7.8 secs

     Computing kpt #:    55  of   144
     total cpu time spent up to now is        7.9 secs

     Computing kpt #:    56  of   144
     total cpu time spent up to now is        8.0 secs

     Computing kpt #:    57  of   144
     total cpu time spent up to now is        8.1 secs

     Computing kpt #:    58  of   144
     total cpu time spent up to now is        8.2 secs

     Computing kpt #:    59  of   144
     total cpu time spent up to now is        8.3 secs

     Computing kpt #:    60  of   144
     total cpu time spent up to now is        8.5 secs

     Computing kpt #:    61  of   144
     total cpu time spent up to now is        8.6 secs

     Computing kpt #:    62  of   144
     total cpu time spent up to now is        8.7 secs

     Computing kpt #:    63  of   144
     total cpu time spent up to now is        8.8 secs

     Computing kpt #:    64  of   144
     total cpu time spent up to now is        8.9 secs

     Computing kpt #:    65  of   144
     total cpu time spent up to now is        9.0 secs

     Computing kpt #:    66  of   144
     total cpu time spent up to now is        9.2 secs

     Computing kpt #:    67  of   144
     total cpu time spent up to now is        9.3 secs

     Computing kpt #:    68  of   144
     total cpu time spent up to now is        9.4 secs

     Computing kpt #:    69  of   144
     total cpu time spent up to now is        9.5 secs

     Computing kpt #:    70  of   144
     total cpu time spent up to now is        9.7 secs

     Computing kpt #:    71  of   144
     total cpu time spent up to now is        9.8 secs

     Computing kpt #:    72  of   144
     total cpu time spent up to now is        9.9 secs

     Computing kpt #:    73  of   144
     total cpu time spent up to now is       10.0 secs

     Computing kpt #:    74  of   144
     total cpu time spent up to now is       10.1 secs

     Computing kpt #:    75  of   144
     total cpu time spent up to now is       10.3 secs

     Computing kpt #:    76  of   144
     total cpu time spent up to now is       10.4 secs

     Computing kpt #:    77  of   144
     total cpu time spent up to now is       10.6 secs

     Computing kpt #:    78  of   144
     total cpu time spent up to now is       10.7 secs

     Computing kpt #:    79  of   144
     c_bands:  1 eigenvalues not converged
     total cpu time spent up to now is       10.9 secs

     Computing kpt #:    80  of   144
     total cpu time spent up to now is       11.0 secs

     Computing kpt #:    81  of   144
     total cpu time spent up to now is       11.1 secs

     Computing kpt #:    82  of   144
     total cpu time spent up to now is       11.3 secs

     Computing kpt #:    83  of   144
     total cpu time spent up to now is       11.4 secs

     Computing kpt #:    84  of   144
     total cpu time spent up to now is       11.5 secs

     Computing kpt #:    85  of   144
     total cpu time spent up to now is       11.6 secs

     Computing kpt #:    86  of   144
     total cpu time spent up to now is       11.8 secs

     Computing kpt #:    87  of   144
     total cpu time spent up to now is       11.9 secs

     Computing kpt #:    88  of   144
     total cpu time spent up to now is       12.0 secs

     Computing kpt #:    89  of   144
     total cpu time spent up to now is       12.2 secs

     Computing kpt #:    90  of   144
     total cpu time spent up to now is       12.3 secs

     Computing kpt #:    91  of   144
     total cpu time spent up to now is       12.4 secs

     Computing kpt #:    92  of   144
     total cpu time spent up to now is       12.5 secs

     Computing kpt #:    93  of   144
     total cpu time spent up to now is       12.6 secs

     Computing kpt #:    94  of   144
     total cpu time spent up to now is       12.8 secs

     Computing kpt #:    95  of   144
     total cpu time spent up to now is       12.9 secs

     Computing kpt #:    96  of   144
     total cpu time spent up to now is       13.0 secs

     Computing kpt #:    97  of   144
     total cpu time spent up to now is       13.1 secs

     Computing kpt #:    98  of   144
     total cpu time spent up to now is       13.3 secs

     Computing kpt #:    99  of   144
     total cpu time spent up to now is       13.4 secs

     Computing kpt #:   100  of   144
     total cpu time spent up to now is       13.5 secs

     Computing kpt #:   101  of   144
     total cpu time spent up to now is       13.6 secs

     Computing kpt #:   102  of   144
     total cpu time spent up to now is       13.8 secs

     Computing kpt #:   103  of   144
     total cpu time spent up to now is       13.9 secs

     Computing kpt #:   104  of   144
     total cpu time spent up to now is       14.0 secs

     Computing kpt #:   105  of   144
     total cpu time spent up to now is       14.1 secs

     Computing kpt #:   106  of   144
     total cpu time spent up to now is       14.2 secs

     Computing kpt #:   107  of   144
     total cpu time spent up to now is       14.3 secs

     Computing kpt #:   108  of   144
     total cpu time spent up to now is       14.4 secs

     Computing kpt #:   109  of   144
     total cpu time spent up to now is       14.5 secs

     Computing kpt #:   110  of   144
     total cpu time spent up to now is       14.6 secs

     Computing kpt #:   111  of   144
     total cpu time spent up to now is       14.8 secs

     Computing kpt #:   112  of   144
     total cpu time spent up to now is       14.9 secs

     Computing kpt #:   113  of   144
     total cpu time spent up to now is       15.0 secs

     Computing kpt #:   114  of   144
     total cpu time spent up to now is       15.1 secs

     Computing kpt #:   115  of   144
     total cpu time spent up to now is       15.2 secs

     Computing kpt #:   116  of   144
     total cpu time spent up to now is       15.3 secs

     Computing kpt #:   117  of   144
     total cpu time spent up to now is       15.4 secs

     Computing kpt #:   118  of   144
     total cpu time spent up to now is       15.6 secs

     Computing kpt #:   119  of   144
     total cpu time spent up to now is       15.7 secs

     Computing kpt #:   120  of   144
     total cpu time spent up to now is       15.8 secs

     Computing kpt #:   121  of   144
     total cpu time spent up to now is       15.9 secs

     Computing kpt #:   122  of   144
     total cpu time spent up to now is       16.1 secs

     Computing kpt #:   123  of   144
     total cpu time spent up to now is       16.2 secs

     Computing kpt #:   124  of   144
     total cpu time spent up to now is       16.4 secs

     Computing kpt #:   125  of   144
     total cpu time spent up to now is       16.5 secs

     Computing kpt #:   126  of   144
     total cpu time spent up to now is       16.6 secs

     Computing kpt #:   127  of   144
     total cpu time spent up to now is       16.8 secs

     Computing kpt #:   128  of   144
     total cpu time spent up to now is       16.9 secs

     Computing kpt #:   129  of   144
     total cpu time spent up to now is       17.0 secs

     Computing kpt #:   130  of   144
     total cpu time spent up to now is       17.2 secs

     Computing kpt #:   131  of   144
     total cpu time spent up to now is       17.3 secs

     Computing kpt #:   132  of   144
     total cpu time spent up to now is       17.4 secs

     Computing kpt #:   133  of   144
     total cpu time spent up to now is       17.5 secs

     Computing kpt #:   134  of   144
     total cpu time spent up to now is       17.6 secs

     Computing kpt #:   135  of   144
     total cpu time spent up to now is       17.8 secs

     Computing kpt #:   136  of   144
     total cpu time spent up to now is       17.9 secs

     Computing kpt #:   137  of   144
     total cpu time spent up to now is       18.0 secs

     Computing kpt #:   138  of   144
     total cpu time spent up to now is       18.1 secs

     Computing kpt #:   139  of   144
     total cpu time spent up to now is       18.3 secs

     Computing kpt #:   140  of   144
     total cpu time spent up to now is       18.4 secs

     Computing kpt #:   141  of   144
     total cpu time spent up to now is       18.5 secs

     Computing kpt #:   142  of   144
     total cpu time spent up to now is       18.7 secs

     Computing kpt #:   143  of   144
     total cpu time spent up to now is       18.8 secs

     Computing kpt #:   144  of   144
     total cpu time spent up to now is       18.9 secs

     ethr =  4.76E-13,  avg # of iterations = 56.9

     total cpu time spent up to now is       18.9 secs

     End of band structure calculation

 ------ SPIN UP ------------


          k = 0.0000 0.0000 0.0000 (   869 PWs)   bands (ev):

   -67.2563 -36.0644 -36.0644 -36.0644  -3.5500   7.0314   7.0314   7.0314
    10.8173  10.8174  15.5269  15.5269  15.5269  15.6528  19.6397

     occupation numbers 
     1.0000   1.0000   1.0000   1.0000   1.0000   1.0000   1.0000   1.0000
     1.0000   1.0000   0.0000   0.0000   0.0000   0.0000   0.0000

          k = 0.0589 0.0589-0.0589 (   881 PWs)   bands (ev):

   -67.2562 -36.0663 -36.0647 -36.0647  -3.4757   6.8890   7.0567   7.0568
    10.7987  10.7987  14.9384  15.4221  15.4221  16.1485  19.6320

     occupation numbers 
     1.0000   1.0000   1.0000   1.0000   1.0000   1.0000   1.0000   1.0000
     1.0000   1.0000   0.0000   0.0000   0.0000   0.0000   0.0000

          k = 0.1179 0.1179-0.1179 (   881 PWs)   bands (ev):

   -67.2558 -36.0711 -36.0655 -36.0655  -3.2647   6.5198   7.1232   7.1232
    10.7677  10.7677  14.0478  15.1387  15.1387  16.8048  19.6485

     occupation numbers 
     1.0000   1.0000   1.0000   1.0000   1.0000   1.0000   1.0000   1.0000
     1.0000   1.0000   0.0000   0.0000   0.0000   0.0000   0.0000

          k = 0.1768 0.1768-0.1768 (   878 PWs)   bands (ev):

   -67.2554 -36.0779 -36.0666 -36.0666  -2.9554   6.0435   7.2037   7.2037
    10.7821  10.7821  13.0622  14.7311  14.7312  17.3284  19.9454

     occupation numbers 
     1.0000   1.0000   1.0000   1.0000   1.0000   1.0000   1.0000   1.0000
     1.0000   1.0000   0.0000   0.0000   0.0000   0.0000   0.0000

          k = 0.2357 0.2357-0.2357 (   854 PWs)   bands (ev):

   -67.2549 -36.0845 -36.0675 -36.0675  -2.6159   5.5806   7.2698   7.2698
    10.8810  10.8810  12.2000  14.2729  14.2730  17.4485  20.4616

     occupation numbers 
     1.0000   1.0000   1.0000   1.0000   1.0000   1.0000   1.0000   1.0000
     1.0000   1.0000   0.0002   0.0000   0.0000   0.0000   0.0000

          k = 0.2946 0.2946-0.2946 (   865 PWs)   bands (ev):

   -67.2546 -36.0896 -36.0683 -36.0683  -2.3434   5.2384   7.3069   7.3069
    11.0264  11.0264  11.6194  13.8773  13.8773  17.3721  20.3822

     occupation numbers 
     1.0000   1.0000   1.0000   1.0000   1.0000   1.0000   1.0000   1.0000
     1.0000   1.0000   0.9936   0.0000   0.0000   0.0000   0.0000

          k =-0.3536-0.3536 0.3536 (   862 PWs)   bands (ev):

   -67.2545 -36.0914 -36.0686 -36.0686  -2.2374   5.1106   7.3181   7.3181
    11.1032  11.1032  11.4162  13.7128  13.7129  17.3260  20.3423

     occupation numbers 
     1.0000   1.0000   1.0000   1.0000   1.0000   1.0000   1.0000   1.0000
     1.0000   1.0000   1.0000   0.0000   0.0000   0.0000   0.0000

          k = 0.1179 0.0000 0.0000 (   881 PWs)   bands (ev):

   -67.2561 -36.0662 -36.0651 -36.0651  -3.4509   6.8555   7.0606   7.0606
    10.7224  10.8590  15.1065  15.1995  15.1995  16.3301  19.3556

     occupation numbers 
     1.0000   1.0000   1.0000   1.0000   1.0000   1.0000   1.0000   1.0000
     1.0000   1.0000   0.0000   0.0000   0.0000   0.0000   0.0000

          k = 0.1768 0.0589-0.0589 (   886 PWs)   bands (ev):

   -67.2559 -36.0700 -36.0660 -36.0657  -3.2854   6.5795   7.1101   7.1113
    10.6305  10.8874  14.3666  14.8492  15.1352  16.8571  19.2924

     occupation numbers 
     1.0000   1.0000   1.0000   1.0000   1.0000   1.0000   1.0000   1.0000
     1.0000   1.0000   0.0000   0.0000   0.0000   0.0000   0.0000

          k = 0.2357 0.1179-0.1179 (   873 PWs)   bands (ev):

   -67.2555 -36.0759 -36.0671 -36.0666  -3.0082   6.1674   7.1719   7.1879
    10.5888  10.9216  13.3726  14.4404  14.8659  17.4788  19.5643

     occupation numbers 
     1.0000   1.0000   1.0000   1.0000   1.0000   1.0000   1.0000   1.0000
     1.0000   1.0000   0.0000   0.0000   0.0000   0.0000   0.0000

          k = 0.2946 0.1768-0.1768 (   860 PWs)   bands (ev):

   -67.2550 -36.0825 -36.0681 -36.0677  -2.6768   5.7335   7.2152   7.2621
    10.6522  11.0003  12.4207  14.0254  14.4478  17.7602  19.9258

     occupation numbers 
     1.0000   1.0000   1.0000   1.0000   1.0000   1.0000   1.0000   1.0000
     1.0000   1.0000   0.0000   0.0000   0.0000   0.0000   0.0000

          k = 0.3536 0.2357-0.2357 (   862 PWs)   bands (ev):

   -67.2546 -36.0879 -36.0688 -36.0688  -2.3782   5.3793   7.2271   7.3147
    10.8189  11.0994  11.7167  13.6960  13.9845  17.6975  19.9704

     occupation numbers 
     1.0000   1.0000   1.0000   1.0000   1.0000   1.0000   1.0000   1.0000
     1.0000   1.0000   0.9301   0.0000   0.0000   0.0000   0.0000

          k =-0.2946-0.4125 0.4125 (   861 PWs)   bands (ev):

   -67.2544 -36.0907 -36.0696 -36.0690  -2.2130   5.1954   7.2173   7.3421
    10.9899  11.1123  11.4047  13.6043  13.6113  17.6092  20.0025

     occupation numbers 
     1.0000   1.0000   1.0000   1.0000   1.0000   1.0000   1.0000   1.0000
     1.0000   1.0000   1.0000   0.0000   0.0000   0.0000   0.0000

          k =-0.2357-0.3536 0.3536 (   863 PWs)   bands (ev):

   -67.2545 -36.0901 -36.0699 -36.0686  -2.2484   5.2385   7.2005   7.3464
    10.9743  11.0806  11.4773  13.4901  13.8353  17.6369  20.0574

     occupation numbers 
     1.0000   1.0000   1.0000   1.0000   1.0000   1.0000   1.0000   1.0000
     1.0000   1.0000   1.0000   0.0000   0.0000   0.0000   0.0000

          k =-0.1768-0.2946 0.2946 (   867 PWs)   bands (ev):

   -67.2547 -36.0863 -36.0694 -36.0677  -2.4692   5.4941   7.1808   7.3230
    10.7816  11.0519  11.9126  13.6683  14.2832  17.7630  20.1115

     occupation numbers 
     1.0000   1.0000   1.0000   1.0000   1.0000   1.0000   1.0000   1.0000
     1.0000   1.0000   0.2881   0.0000   0.0000   0.0000   0.0000

          k =-0.1179-0.2357 0.2357 (   869 PWs)   bands (ev):

   -67.2551 -36.0803 -36.0685 -36.0667  -2.7900   5.8867   7.1520   7.2658
    10.6563  10.9455  12.7127  14.0069  14.7825  17.7824  20.0281

     occupation numbers 
     1.0000   1.0000   1.0000   1.0000   1.0000   1.0000   1.0000   1.0000
     1.0000   1.0000   0.0000   0.0000   0.0000   0.0000   0.0000

          k =-0.0589-0.1768 0.1768 (   871 PWs)   bands (ev):

   -67.2556 -36.0738 -36.0672 -36.0656  -3.1112   6.3204   7.1122   7.1835
    10.6424  10.8729  13.7160  14.3756  15.1994  17.3435  19.6910

     occupation numbers 
     1.0000   1.0000   1.0000   1.0000   1.0000   1.0000   1.0000   1.0000
     1.0000   1.0000   0.0000   0.0000   0.0000   0.0000   0.0000

          k =-0.0000-0.1179 0.1179 (   883 PWs)   bands (ev):

   -67.2560 -36.0688 -36.0658 -36.0649  -3.3557   6.6895   7.0748   7.1034
    10.7098  10.8389  14.6040  14.8172  15.4315  16.6389  19.5800

     occupation numbers 
     1.0000   1.0000   1.0000   1.0000   1.0000   1.0000   1.0000   1.0000
     1.0000   1.0000   0.0000   0.0000   0.0000   0.0000   0.0000

          k = 0.2357 0.0000 0.0000 (   877 PWs)   bands (ev):

   -67.2557 -36.0712 -36.0670 -36.0670  -3.1696   6.4192   7.1500   7.1500
    10.4767  10.9750  14.4459  14.4459  14.7194  16.9909  18.9989

     occupation numbers 
     1.0000   1.0000   1.0000   1.0000   1.0000   1.0000   1.0000   1.0000
     1.0000   1.0000   0.0000   0.0000   0.0000   0.0000   0.0000

          k = 0.2946 0.0589-0.0589 (   867 PWs)   bands (ev):

   -67.2553 -36.0755 -36.0681 -36.0680  -2.9378   6.1176   7.1998   7.2233
    10.3698  11.0425  13.6287  14.0201  14.5441  17.3401  19.1712

     occupation numbers 
     1.0000   1.0000   1.0000   1.0000   1.0000   1.0000   1.0000   1.0000
     1.0000   1.0000   0.0000   0.0000   0.0000   0.0000   0.0000

          k = 0.3536 0.1179-0.1179 (   863 PWs)   bands (ev):

   -67.2549 -36.0810 -36.0694 -36.0692  -2.6371   5.7934   7.1923   7.3042
    10.3859  11.1160  12.6118  13.6273  14.2143  17.8524  19.5257

     occupation numbers 
     1.0000   1.0000   1.0000   1.0000   1.0000   1.0000   1.0000   1.0000
     1.0000   1.0000   0.0000   0.0000   0.0000   0.0000   0.0000

          k = 0.4125 0.1768-0.1768 (   866 PWs)   bands (ev):

   -67.2546 -36.0861 -36.0710 -36.0699  -2.3417   5.5316   7.1145   7.3698
    10.5349  11.1801  11.7736  13.3483  13.8000  18.0549  19.7384

     occupation numbers 
     1.0000   1.0000   1.0000   1.0000   1.0000   1.0000   1.0000   1.0000
     1.0000   1.0000   0.8121   0.0000   0.0000   0.0000   0.0000

          k =-0.2357-0.4714 0.4714 (   866 PWs)   bands (ev):

   -67.2543 -36.0890 -36.0724 -36.0701  -2.1432   5.3933   7.0024   7.4096
    10.6986  11.1412  11.3761  13.3144  13.3817  18.0327  19.8358

     occupation numbers 
     1.0000   1.0000   1.0000   1.0000   1.0000   1.0000   1.0000   1.0000
     1.0000   1.0000   1.0000   0.0000   0.0000   0.0000   0.0000

          k =-0.1768-0.4125 0.4125 (   855 PWs)   bands (ev):

   -67.2543 -36.0892 -36.0732 -36.0695  -2.1157   5.4090   6.9145   7.4228
    10.8060  10.9604  11.4487  13.0770  13.5862  18.0822  19.8855

     occupation numbers 
     1.0000   1.0000   1.0000   1.0000   1.0000   1.0000   1.0000   1.0000
     1.0000   1.0000   1.0000   0.0000   0.0000   0.0000   0.0000

          k =-0.1179-0.3536 0.3536 (   867 PWs)   bands (ev):

   -67.2545 -36.0869 -36.0731 -36.0686  -2.2701   5.5604   6.8980   7.4058
    10.7384  11.0225  11.6610  13.0347  14.0532  18.3128  19.8419

     occupation numbers 
     1.0000   1.0000   1.0000   1.0000   1.0000   1.0000   1.0000   1.0000
     1.0000   1.0000   0.9801   0.0000   0.0000   0.0000   0.0000

          k =-0.0589-0.2946 0.2946 (   865 PWs)   bands (ev):

   -67.2548 -36.0825 -36.0719 -36.0674  -2.5462   5.7955   6.9561   7.3532
    10.5910  11.0732  12.2327  13.2463  14.5646  18.6147  19.6517

     occupation numbers 
     1.0000   1.0000   1.0000   1.0000   1.0000   1.0000   1.0000   1.0000
     1.0000   1.0000   0.0001   0.0000   0.0000   0.0000   0.0000

          k = 0.0000-0.2357 0.2357 (   857 PWs)   bands (ev):

   -67.2552 -36.0777 -36.0697 -36.0663  -2.8533   6.0630   7.0458   7.2709
    10.5655  10.9745  13.1324  13.5965  14.9864  18.2129  19.7067

     occupation numbers 
     1.0000   1.0000   1.0000   1.0000   1.0000   1.0000   1.0000   1.0000
     1.0000   1.0000   0.0000   0.0000   0.0000   0.0000   0.0000

          k = 0.3536 0.0000 0.0000 (   849 PWs)   bands (ev):

   -67.2550 -36.0777 -36.0694 -36.0694  -2.7570   5.8987   7.2976   7.2977
    10.1859  11.1397  13.5775  13.5775  14.0230  17.0200  19.1719

     occupation numbers 
     1.0000   1.0000   1.0000   1.0000   1.0000   1.0000   1.0000   1.0000
     1.0000   1.0000   0.0000   0.0000   0.0000   0.0000   0.0000

          k = 0.4125 0.0589-0.0589 (   857 PWs)   bands (ev):

   -67.2547 -36.0818 -36.0709 -36.0706  -2.5034   5.6547   7.3273   7.3859
    10.1283  11.2192  12.7629  13.1847  13.7110  17.2781  19.2458

     occupation numbers 
     1.0000   1.0000   1.0000   1.0000   1.0000   1.0000   1.0000   1.0000
     1.0000   1.0000   0.0000   0.0000   0.0000   0.0000   0.0000

          k = 0.4714 0.1179-0.1179 (   863 PWs)   bands (ev):

   -67.2544 -36.0855 -36.0729 -36.0714  -2.2386   5.4981   7.2060   7.4615
    10.2282  11.2652  11.8407  12.9269  13.4216  17.7313  19.4968

     occupation numbers 
     1.0000   1.0000   1.0000   1.0000   1.0000   1.0000   1.0000   1.0000
     1.0000   1.0000   0.5746   0.0000   0.0000   0.0000   0.0000

          k =-0.1768-0.5303 0.5303 (   863 PWs)   bands (ev):

   -67.2542 -36.0876 -36.0752 -36.0715  -2.0402   5.4918   6.9467   7.5074
    10.3469  11.1968  11.3490  12.9233  13.0915  17.9453  20.0153

     occupation numbers 
     1.0000   1.0000   1.0000   1.0000   1.0000   1.0000   1.0000   1.0000
     1.0000   1.0000   1.0000   0.0000   0.0000   0.0000   0.0000

          k =-0.1179-0.4714 0.4714 (   858 PWs)   bands (ev):

   -67.2541 -36.0876 -36.0771 -36.0710  -1.9755   5.6368   6.6393   7.5188
    10.3892  11.0001  11.4333  12.7699  13.2049  18.0624  20.3922

     occupation numbers 
     1.0000   1.0000   1.0000   1.0000   1.0000   1.0000   1.0000   1.0000
     1.0000   1.0000   1.0000   0.0000   0.0000   0.0000   0.0000

          k =-0.0589-0.4125 0.4125 (   860 PWs)   bands (ev):

   -67.2542 -36.0861 -36.0775 -36.0699  -2.0673   5.8016   6.4840   7.4952
    10.6182  10.7784  11.6677  12.5946  13.6583  18.2922  20.4306

     occupation numbers 
     1.0000   1.0000   1.0000   1.0000   1.0000   1.0000   1.0000   1.0000
     1.0000   1.0000   0.9765   0.0000   0.0000   0.0000   0.0000

          k = 0.0000-0.3536 0.3536 (   867 PWs)   bands (ev):

   -67.2545 -36.0844 -36.0756 -36.0686  -2.2808   5.8000   6.6676   7.4372
    10.6284  10.9913  11.8095  12.7677  14.1517  18.6713  20.0229

     occupation numbers 
     1.0000   1.0000   1.0000   1.0000   1.0000   1.0000   1.0000   1.0000
     1.0000   1.0000   0.6960   0.0000   0.0000   0.0000   0.0000

          k = 0.4714 0.0000 0.0000 (   866 PWs)   bands (ev):

   -67.2545 -36.0845 -36.0720 -36.0720  -2.3050   5.4373   7.4832   7.4832
     9.9768  11.3071  12.7833  12.7833  12.9374  17.0498  19.0243

     occupation numbers 
     1.0000   1.0000   1.0000   1.0000   1.0000   1.0000   1.0000   1.0000
     1.0000   1.0000   0.0000   0.0000   0.0000   0.0000   0.0000

          k = 0.5303 0.0589-0.0589 (   859 PWs)   bands (ev):

   -67.2542 -36.0872 -36.0734 -36.0728  -2.0921   5.2978   7.4734   7.5668
    10.0001  11.3570  11.9353  12.5189  12.8279  17.3199  18.9932

     occupation numbers 
     1.0000   1.0000   1.0000   1.0000   1.0000   1.0000   1.0000   1.0000
     1.0000   1.0000   0.2132   0.0000   0.0000   0.0000   0.0000

          k =-0.1179-0.5893 0.5893 (   853 PWs)   bands (ev):

   -67.2540 -36.0883 -36.0759 -36.0729  -1.9268   5.3271   7.2333   7.6129
    10.0744  11.2867  11.3421  12.5160  12.7202  17.6646  19.3828

     occupation numbers 
     1.0000   1.0000   1.0000   1.0000   1.0000   1.0000   1.0000   1.0000
     1.0000   1.0000   1.0000   0.0000   0.0000   0.0000   0.0000

          k =-0.0589-0.5303 0.5303 (   863 PWs)   bands (ev):

   -67.2539 -36.0874 -36.0788 -36.0724  -1.8617   5.5525   6.8012   7.6123
    10.0680  11.1003  11.3407  12.5651  12.7825  17.8507  20.1870

     occupation numbers 
     1.0000   1.0000   1.0000   1.0000   1.0000   1.0000   1.0000   1.0000
     1.0000   1.0000   1.0000   0.0000   0.0000   0.0000   0.0000

          k =-0.0000-0.4714 0.4714 (   866 PWs)   bands (ev):

   -67.2540 -36.0858 -36.0803 -36.0713  -1.9155   5.9055   6.3360   7.5694
    10.2257  10.9074  11.5797  12.4527  13.2005  18.0374  20.8032

     occupation numbers 
     1.0000   1.0000   1.0000   1.0000   1.0000   1.0000   1.0000   1.0000
     1.0000   1.0000   0.9981   0.0000   0.0000   0.0000   0.0000

          k = 0.5893 0.0000 0.0000 (   854 PWs)   bands (ev):

   -67.2540 -36.0893 -36.0737 -36.0737  -1.9424   5.1257   7.6543   7.6543
     9.9454  11.4359  11.9142  12.2167  12.2167  17.2320  18.7128

     occupation numbers 
     1.0000   1.0000   1.0000   1.0000   1.0000   1.0000   1.0000   1.0000
     1.0000   1.0000   0.2823   0.0001   0.0001   0.0000   0.0000

          k =-0.0589-0.6482 0.6482 (   858 PWs)   bands (ev):

   -67.2539 -36.0902 -36.0750 -36.0740  -1.8364   5.1066   7.5855   7.6956
     9.9848  11.3854  11.4045  12.1688  12.2772  17.4324  18.7725

     occupation numbers 
     1.0000   1.0000   1.0000   1.0000   1.0000   1.0000   1.0000   1.0000
     1.0000   1.0000   1.0000   0.0006   0.0000   0.0000   0.0000

          k = 0.0000-0.5893 0.5893 (   856 PWs)   bands (ev):

   -67.2538 -36.0892 -36.0771 -36.0735  -1.8080   5.2744   7.2536   7.6786
     9.9638  11.2358  11.2523  12.4044  12.4165  17.6587  19.3305

     occupation numbers 
     1.0000   1.0000   1.0000   1.0000   1.0000   1.0000   1.0000   1.0000
     1.0000   1.0000   1.0000   0.0000   0.0000   0.0000   0.0000

          k =-0.7071 0.0000 0.0000 (   846 PWs)   bands (ev):

   -67.2538 -36.0910 -36.0744 -36.0744  -1.8015   5.0155   7.7272   7.7273
    10.0038  11.4584  11.4840  12.0073  12.0073  17.3414  18.5626

     occupation numbers 
     1.0000   1.0000   1.0000   1.0000   1.0000   1.0000   1.0000   1.0000
     1.0000   1.0000   1.0000   0.0614   0.0614   0.0000   0.0000

          k = 0.2357 0.1179-0.0000 (   871 PWs)   bands (ev):

   -67.2556 -36.0734 -36.0677 -36.0662  -3.0864   6.3094   7.1199   7.1896
    10.5267  10.9494  13.9836  14.0676  15.0193  17.4075  19.2884

     occupation numbers 
     1.0000   1.0000   1.0000   1.0000   1.0000   1.0000   1.0000   1.0000
     1.0000   1.0000   0.0000   0.0000   0.0000   0.0000   0.0000

          k = 0.2946 0.1768-0.0589 (   866 PWs)   bands (ev):

   -67.2551 -36.0788 -36.0695 -36.0671  -2.7965   5.9716   7.1102   7.2770
    10.4977  11.0233  12.9540  13.7076  14.7162  18.0515  19.6081

     occupation numbers 
     1.0000   1.0000   1.0000   1.0000   1.0000   1.0000   1.0000   1.0000
     1.0000   1.0000   0.0000   0.0000   0.0000   0.0000   0.0000

          k = 0.3536 0.2357-0.1179 (   864 PWs)   bands (ev):

   -67.2547 -36.0843 -36.0709 -36.0682  -2.4814   5.6477   7.0769   7.3466
    10.5917  11.1064  12.0482  13.3997  14.2701  18.2473  19.7048

     occupation numbers 
     1.0000   1.0000   1.0000   1.0000   1.0000   1.0000   1.0000   1.0000
     1.0000   1.0000   0.0245   0.0000   0.0000   0.0000   0.0000

          k =-0.2946-0.4125 0.5303 (   863 PWs)   bands (ev):

   -67.2544 -36.0884 -36.0717 -36.0692  -2.2310   5.4109   7.0386   7.3855
    10.7748  11.0845  11.5231  13.2303  13.8053  18.1012  19.7208

     occupation numbers 
     1.0000   1.0000   1.0000   1.0000   1.0000   1.0000   1.0000   1.0000
     1.0000   1.0000   0.9998   0.0000   0.0000   0.0000   0.0000

          k =-0.2357-0.3536 0.4714 (   860 PWs)   bands (ev):

   -67.2543 -36.0899 -36.0719 -36.0696  -2.1344   5.3229   7.0219   7.3970
    10.8625  11.0297  11.3900  13.2563  13.5302  18.0167  19.7394

     occupation numbers 
     1.0000   1.0000   1.0000   1.0000   1.0000   1.0000   1.0000   1.0000
     1.0000   1.0000   1.0000   0.0000   0.0000   0.0000   0.0000

          k = 0.3536 0.1179 0.0000 (   858 PWs)   bands (ev):

   -67.2550 -36.0792 -36.0702 -36.0687  -2.6941   5.8666   7.1989   7.3195
    10.2862  11.1266  13.0467  13.4172  14.2795  17.6186  19.3483

     occupation numbers 
     1.0000   1.0000   1.0000   1.0000   1.0000   1.0000   1.0000   1.0000
     1.0000   1.0000   0.0000   0.0000   0.0000   0.0000   0.0000

          k = 0.4125 0.1768-0.0589 (   862 PWs)   bands (ev):

   -67.2546 -36.0835 -36.0723 -36.0697  -2.4096   5.6567   7.1072   7.4032
    10.3376  11.1886  12.1451  13.0582  13.9439  18.1155  19.5744

     occupation numbers 
     1.0000   1.0000   1.0000   1.0000   1.0000   1.0000   1.0000   1.0000
     1.0000   1.0000   0.0015   0.0000   0.0000   0.0000   0.0000

          k =-0.2357-0.4714 0.5893 (   867 PWs)   bands (ev):

   -67.2543 -36.0868 -36.0740 -36.0706  -2.1608   5.5454   6.9401   7.4562
    10.4809  11.1074  11.5546  12.8905  13.5651  18.3096  19.7774

     occupation numbers 
     1.0000   1.0000   1.0000   1.0000   1.0000   1.0000   1.0000   1.0000
     1.0000   1.0000   0.9992   0.0000   0.0000   0.0000   0.0000

          k =-0.1768-0.4125 0.5303 (   859 PWs)   bands (ev):

   -67.2542 -36.0882 -36.0752 -36.0708  -2.0289   5.5461   6.7666   7.4790
    10.5317  10.9933  11.4041  12.8958  13.3112  18.3273  19.8552

     occupation numbers 
     1.0000   1.0000   1.0000   1.0000   1.0000   1.0000   1.0000   1.0000
     1.0000   1.0000   1.0000   0.0000   0.0000   0.0000   0.0000

          k =-0.1179-0.3536 0.4714 (   860 PWs)   bands (ev):

   -67.2542 -36.0876 -36.0757 -36.0703  -2.0628   5.6155   6.6926   7.4753
    10.6250  10.8667  11.5272  12.7729  13.5372  18.4675  19.8022

     occupation numbers 
     1.0000   1.0000   1.0000   1.0000   1.0000   1.0000   1.0000   1.0000
     1.0000   1.0000   0.9997   0.0000   0.0000   0.0000   0.0000

          k =-0.0589-0.2946 0.4125 (   863 PWs)   bands (ev):

   -67.2544 -36.0852 -36.0748 -36.0692  -2.2488   5.6983   6.7801   7.4407
    10.5876  11.0199  11.7379  12.8077  13.9788  18.8207  19.5828

     occupation numbers 
     1.0000   1.0000   1.0000   1.0000   1.0000   1.0000   1.0000   1.0000
     1.0000   1.0000   0.8956   0.0000   0.0000   0.0000   0.0000

          k = 0.0000-0.2357 0.3536 (   859 PWs)   bands (ev):

   -67.2548 -36.0820 -36.0725 -36.0680  -2.5205   5.8082   6.9582   7.3711
    10.4879  11.1121  12.2865  13.1096  14.4141  18.8798  19.4521

     occupation numbers 
     1.0000   1.0000   1.0000   1.0000   1.0000   1.0000   1.0000   1.0000
     1.0000   1.0000   0.0000   0.0000   0.0000   0.0000   0.0000

          k = 0.4714 0.1179 0.0000 (   862 PWs)   bands (ev):

   -67.2544 -36.0848 -36.0728 -36.0716  -2.2683   5.4835   7.3093   7.4834
    10.1078  11.2773  12.1613  12.7361  13.4094  17.5225  19.2274

     occupation numbers 
     1.0000   1.0000   1.0000   1.0000   1.0000   1.0000   1.0000   1.0000
     1.0000   1.0000   0.0008   0.0000   0.0000   0.0000   0.0000

          k =-0.1768-0.5303 0.6482 (   863 PWs)   bands (ev):

   -67.2542 -36.0869 -36.0751 -36.0723  -2.0513   5.4455   7.1254   7.5465
    10.1903  11.1586  11.5896  12.5308  13.1900  17.9400  19.5027

     occupation numbers 
     1.0000   1.0000   1.0000   1.0000   1.0000   1.0000   1.0000   1.0000
     1.0000   1.0000   0.9974   0.0000   0.0000   0.0000   0.0000

          k =-0.1179-0.4714 0.5893 (   861 PWs)   bands (ev):

   -67.2540 -36.0873 -36.0775 -36.0724  -1.9192   5.5795   6.7940   7.5693
    10.1905  10.9892  11.4138  12.5586  13.0309  18.1510  20.1365

     occupation numbers 
     1.0000   1.0000   1.0000   1.0000   1.0000   1.0000   1.0000   1.0000
     1.0000   1.0000   1.0000   0.0000   0.0000   0.0000   0.0000

          k =-0.0589-0.4125 0.5303 (   862 PWs)   bands (ev):

   -67.2540 -36.0863 -36.0793 -36.0717  -1.9154   5.8438   6.4211   7.5587
    10.2402  10.8825  11.5152  12.4968  13.1949  18.3197  20.4803

     occupation numbers 
     1.0000   1.0000   1.0000   1.0000   1.0000   1.0000   1.0000   1.0000
     1.0000   1.0000   0.9998   0.0000   0.0000   0.0000   0.0000

          k =-0.0000-0.3536 0.4714 (   862 PWs)   bands (ev):

   -67.2542 -36.0854 -36.0784 -36.0705  -2.0393   5.8793   6.4229   7.5155
    10.5243  10.7555  11.6852  12.4809  13.5824  18.5994  20.2281

     occupation numbers 
     1.0000   1.0000   1.0000   1.0000   1.0000   1.0000   1.0000   1.0000
     1.0000   1.0000   0.9644   0.0000   0.0000   0.0000   0.0000

          k =-0.1179-0.5893 0.7071 (   863 PWs)   bands (ev):

   -67.2540 -36.0888 -36.0748 -36.0737  -1.9307   5.2338   7.4328   7.6328
    10.0154  11.2565  11.5835  12.2450  12.6983  17.5537  18.9953

     occupation numbers 
     1.0000   1.0000   1.0000   1.0000   1.0000   1.0000   1.0000   1.0000
     1.0000   1.0000   0.9979   0.0000   0.0000   0.0000   0.0000

          k =-0.0589-0.5303 0.6482 (   863 PWs)   bands (ev):

   -67.2539 -36.0886 -36.0769 -36.0738  -1.8335   5.3498   7.1664   7.6465
     9.9942  11.0087  11.4439  12.2590  12.7266  17.8711  19.4458

     occupation numbers 
     1.0000   1.0000   1.0000   1.0000   1.0000   1.0000   1.0000   1.0000
     1.0000   1.0000   1.0000   0.0000   0.0000   0.0000   0.0000

          k =-0.0000-0.4714 0.5893 (   864 PWs)   bands (ev):

   -67.2539 -36.0870 -36.0793 -36.0730  -1.8295   5.6265   6.7260   7.6192
    10.0017  10.9533  11.4232  12.3766  12.8833  18.0902  20.2633

     occupation numbers 
     1.0000   1.0000   1.0000   1.0000   1.0000   1.0000   1.0000   1.0000
     1.0000   1.0000   1.0000   0.0000   0.0000   0.0000   0.0000

          k =-0.7071 0.1179 0.0000 (   858 PWs)   bands (ev):

   -67.2538 -36.0901 -36.0754 -36.0745  -1.8007   5.1482   7.4971   7.6939
     9.9754  11.1198  11.4812  12.0752  12.4300  17.5950  18.8941

     occupation numbers 
     1.0000   1.0000   1.0000   1.0000   1.0000   1.0000   1.0000   1.0000
     1.0000   1.0000   1.0000   0.0123   0.0000   0.0000   0.0000

          k =-0.2357-0.4714 0.7071 (   857 PWs)   bands (ev):

   -67.2543 -36.0853 -36.0753 -36.0708  -2.1695   5.6292   6.8969   7.4892
    10.3795  11.0621  11.7292  12.6154  13.6569  18.6518  19.6253

     occupation numbers 
     1.0000   1.0000   1.0000   1.0000   1.0000   1.0000   1.0000   1.0000
     1.0000   1.0000   0.9110   0.0000   0.0000   0.0000   0.0000

          k =-0.1768-0.4125 0.6482 (   862 PWs)   bands (ev):

   -67.2541 -36.0864 -36.0775 -36.0718  -1.9850   5.7146   6.6378   7.5348
    10.3608  10.8255  11.5631  12.4897  13.3520  18.7906  19.8601

     occupation numbers 
     1.0000   1.0000   1.0000   1.0000   1.0000   1.0000   1.0000   1.0000
     1.0000   1.0000   0.9989   0.0000   0.0000   0.0000   0.0000

          k =-0.1179-0.3536 0.5893 (   866 PWs)   bands (ev):

   -67.2540 -36.0867 -36.0783 -36.0723  -1.9154   5.7960   6.4933   7.5471
    10.2568  10.8515  11.4594  12.5346  13.1885  18.7487  19.9548

     occupation numbers 
     1.0000   1.0000   1.0000   1.0000   1.0000   1.0000   1.0000   1.0000
     1.0000   1.0000   1.0000   0.0000   0.0000   0.0000   0.0000

          k =-0.1179-0.4714 0.7071 (   868 PWs)   bands (ev):

   -67.2540 -36.0872 -36.0773 -36.0735  -1.9003   5.5435   6.9032   7.5914
    10.1214  10.8613  11.5435  12.3002  13.0731  18.3828  19.7994

     occupation numbers 
     1.0000   1.0000   1.0000   1.0000   1.0000   1.0000   1.0000   1.0000
     1.0000   1.0000   0.9995   0.0000   0.0000   0.0000   0.0000

          k =-0.0589-0.4125 0.6482 (   870 PWs)   bands (ev):

   -67.2539 -36.0864 -36.0793 -36.0739  -1.8307   5.7717   6.5828   7.5954
    10.0050  10.7955  11.4800  12.3107  13.0269  18.6528  20.4272

     occupation numbers 
     1.0000   1.0000   1.0000   1.0000   1.0000   1.0000   1.0000   1.0000
     1.0000   1.0000   1.0000   0.0000   0.0000   0.0000   0.0000

          k = 0.0000-0.3536 0.5893 (   861 PWs)   bands (ev):

   -67.2539 -36.0857 -36.0798 -36.0731  -1.8627   5.9271   6.3829   7.5789
    10.0978  10.7774  11.5191  12.3433  13.1378  18.8239  20.3880

     occupation numbers 
     1.0000   1.0000   1.0000   1.0000   1.0000   1.0000   1.0000   1.0000
     1.0000   1.0000   0.9998   0.0000   0.0000   0.0000   0.0000

          k =-0.7071 0.2357 0.0000 (   870 PWs)   bands (ev):

   -67.2539 -36.0878 -36.0780 -36.0745  -1.7991   5.5215   6.9319   7.6285
     9.9290  10.8245  11.4880  12.1962  12.8655  18.2995  19.8518

     occupation numbers 
     1.0000   1.0000   1.0000   1.0000   1.0000   1.0000   1.0000   1.0000
     1.0000   1.0000   0.9999   0.0002   0.0000   0.0000   0.0000

          k =-0.7071 0.3536 0.0000 (   876 PWs)   bands (ev):

   -67.2539 -36.0859 -36.0799 -36.0746  -1.7983   5.9049   6.4549   7.5963
     9.9094  10.7343  11.4911  12.2498  13.0189  18.8991  21.1596

     occupation numbers 
     1.0000   1.0000   1.0000   1.0000   1.0000   1.0000   1.0000   1.0000
     1.0000   1.0000   0.9999   0.0000   0.0000   0.0000   0.0000

 ------ SPIN DOWN ----------


          k = 0.0000 0.0000 0.0000 (   869 PWs)   bands (ev):

   -66.9192 -35.7342 -35.7342 -35.7341  -3.5344   7.1056   7.1056   7.1057
    11.2348  11.2349  15.6401  15.6401  15.6401  15.7027  19.7204

     occupation numbers 
     1.0000   1.0000   1.0000   1.0000   1.0000   1.0000   1.0000   1.0000
     1.0000   1.0000   0.0000   0.0000   0.0000   0.0000   0.0000

          k = 0.0589 0.0589-0.0589 (   881 PWs)   bands (ev):

   -66.9191 -35.7361 -35.7345 -35.7345  -3.4605   6.9599   7.1311   7.1311
    11.2116  11.2116  15.0544  15.5423  15.5423  16.2035  19.7049

     occupation numbers 
     1.0000   1.0000   1.0000   1.0000   1.0000   1.0000   1.0000   1.0000
     1.0000   1.0000   0.0000   0.0000   0.0000   0.0000   0.0000

          k = 0.1179 0.1179-0.1179 (   881 PWs)   bands (ev):

   -66.9188 -35.7411 -35.7353 -35.7353  -3.2502   6.5825   7.1982   7.1982
    11.1693  11.1694  14.1845  15.2736  15.2736  16.8596  19.7022

     occupation numbers 
     1.0000   1.0000   1.0000   1.0000   1.0000   1.0000   1.0000   1.0000
     1.0000   1.0000   0.0000   0.0000   0.0000   0.0000   0.0000

          k = 0.1768 0.1768-0.1768 (   878 PWs)   bands (ev):

   -66.9183 -35.7480 -35.7364 -35.7364  -2.9422   6.0965   7.2809   7.2810
    11.1709  11.1710  13.2141  14.8780  14.8780  17.3902  19.9828

     occupation numbers 
     1.0000   1.0000   1.0000   1.0000   1.0000   1.0000   1.0000   1.0000
     1.0000   1.0000   0.0000   0.0000   0.0000   0.0000   0.0000

          k = 0.2357 0.2357-0.2357 (   854 PWs)   bands (ev):

   -66.9178 -35.7548 -35.7373 -35.7373  -2.6043   5.6250   7.3509   7.3510
    11.2607  11.2607  12.3636  14.4235  14.4235  17.5067  20.5635

     occupation numbers 
     1.0000   1.0000   1.0000   1.0000   1.0000   1.0000   1.0000   1.0000
     1.0000   1.0000   0.0000   0.0000   0.0000   0.0000   0.0000

          k = 0.2946 0.2946-0.2946 (   865 PWs)   bands (ev):

   -66.9175 -35.7600 -35.7382 -35.7382  -2.3332   5.2770   7.3922   7.3922
    11.4044  11.4045  11.7906  14.0232  14.0233  17.4240  20.4936

     occupation numbers 
     1.0000   1.0000   1.0000   1.0000   1.0000   1.0000   1.0000   1.0000
     1.0000   1.0000   0.7607   0.0000   0.0000   0.0000   0.0000

          k =-0.3536-0.3536 0.3536 (   862 PWs)   bands (ev):

   -66.9174 -35.7618 -35.7385 -35.7385  -2.2277   5.1472   7.4051   7.4051
    11.4832  11.4832  11.5902  13.8541  13.8542  17.3755  20.4568

     occupation numbers 
     1.0000   1.0000   1.0000   1.0000   1.0000   1.0000   1.0000   1.0000
     1.0000   1.0000   0.9974   0.0000   0.0000   0.0000   0.0000

          k = 0.1179 0.0000 0.0000 (   881 PWs)   bands (ev):

   -66.9191 -35.7361 -35.7349 -35.7349  -3.4358   6.9280   7.1335   7.1336
    11.1251  11.2789  15.2289  15.3179  15.3179  16.3894  19.4335

     occupation numbers 
     1.0000   1.0000   1.0000   1.0000   1.0000   1.0000   1.0000   1.0000
     1.0000   1.0000   0.0000   0.0000   0.0000   0.0000   0.0000

          k = 0.1768 0.0589-0.0589 (   886 PWs)   bands (ev):

   -66.9188 -35.7399 -35.7358 -35.7355  -3.2709   6.6465   7.1834   7.1835
    11.0167  11.3056  14.5012  14.9760  15.2778  16.9119  19.3646

     occupation numbers 
     1.0000   1.0000   1.0000   1.0000   1.0000   1.0000   1.0000   1.0000
     1.0000   1.0000   0.0000   0.0000   0.0000   0.0000   0.0000

          k = 0.2357 0.1179-0.1179 (   873 PWs)   bands (ev):

   -66.9184 -35.7460 -35.7369 -35.7365  -2.9947   6.2252   7.2476   7.2606
    10.9573  11.3320  13.5195  14.5772  15.0305  17.5397  19.6216

     occupation numbers 
     1.0000   1.0000   1.0000   1.0000   1.0000   1.0000   1.0000   1.0000
     1.0000   1.0000   0.0000   0.0000   0.0000   0.0000   0.0000

          k = 0.2946 0.1768-0.1768 (   860 PWs)   bands (ev):

   -66.9179 -35.7527 -35.7379 -35.7375  -2.6648   5.7821   7.2946   7.3380
    11.0067  11.4015  12.5787  14.1677  14.6251  17.8230  19.9947

     occupation numbers 
     1.0000   1.0000   1.0000   1.0000   1.0000   1.0000   1.0000   1.0000
     1.0000   1.0000   0.0000   0.0000   0.0000   0.0000   0.0000

          k = 0.3536 0.2357-0.2357 (   862 PWs)   bands (ev):

   -66.9175 -35.7583 -35.7387 -35.7387  -2.3677   5.4205   7.3102   7.3953
    11.1651  11.4919  11.8874  13.8399  14.1630  17.7529  20.0673

     occupation numbers 
     1.0000   1.0000   1.0000   1.0000   1.0000   1.0000   1.0000   1.0000
     1.0000   0.9999   0.3832   0.0000   0.0000   0.0000   0.0000

          k =-0.2946-0.4125 0.4125 (   861 PWs)   bands (ev):

   -66.9173 -35.7611 -35.7396 -35.7389  -2.2034   5.2329   7.3019   7.4268
    11.3077  11.4913  11.6183  13.7556  13.7788  17.6596  20.1103

     occupation numbers 
     1.0000   1.0000   1.0000   1.0000   1.0000   1.0000   1.0000   1.0000
     1.0000   0.9999   0.9938   0.0000   0.0000   0.0000   0.0000

          k =-0.2357-0.3536 0.3536 (   863 PWs)   bands (ev):

   -66.9174 -35.7605 -35.7398 -35.7385  -2.2386   5.2766   7.2831   7.4322
    11.3373  11.4041  11.7015  13.6440  14.0006  17.6869  20.1662

     occupation numbers 
     1.0000   1.0000   1.0000   1.0000   1.0000   1.0000   1.0000   1.0000
     1.0000   1.0000   0.9490   0.0000   0.0000   0.0000   0.0000

          k =-0.1768-0.2946 0.2946 (   867 PWs)   bands (ev):

   -66.9177 -35.7567 -35.7393 -35.7376  -2.4583   5.5369   7.2589   7.4068
    11.1400  11.4346  12.0817  13.8191  14.4555  17.8170  20.2098

     occupation numbers 
     1.0000   1.0000   1.0000   1.0000   1.0000   1.0000   1.0000   1.0000
     1.0000   1.0000   0.0103   0.0000   0.0000   0.0000   0.0000

          k =-0.1179-0.2357 0.2357 (   869 PWs)   bands (ev):

   -66.9181 -35.7505 -35.7383 -35.7365  -2.7775   5.9375   7.2255   7.3462
    11.0227  11.3423  12.8661  14.1557  14.9505  17.8422  20.0828

     occupation numbers 
     1.0000   1.0000   1.0000   1.0000   1.0000   1.0000   1.0000   1.0000
     1.0000   1.0000   0.0000   0.0000   0.0000   0.0000   0.0000

          k =-0.0589-0.1768 0.1768 (   871 PWs)   bands (ev):

   -66.9185 -35.7438 -35.7370 -35.7354  -3.0974   6.3802   7.1834   7.2610
    11.0238  11.2796  13.8579  14.5147  15.3534  17.3997  19.7439

     occupation numbers 
     1.0000   1.0000   1.0000   1.0000   1.0000   1.0000   1.0000   1.0000
     1.0000   1.0000   0.0000   0.0000   0.0000   0.0000   0.0000

          k =-0.0000-0.1179 0.1179 (   883 PWs)   bands (ev):

   -66.9189 -35.7387 -35.7356 -35.7347  -3.3409   6.7570   7.1467   7.1792
    11.1083  11.2525  14.7370  14.9385  15.5661  16.6919  19.6479

     occupation numbers 
     1.0000   1.0000   1.0000   1.0000   1.0000   1.0000   1.0000   1.0000
     1.0000   1.0000   0.0000   0.0000   0.0000   0.0000   0.0000

          k = 0.2357 0.0000 0.0000 (   877 PWs)   bands (ev):

   -66.9186 -35.7411 -35.7368 -35.7368  -3.1555   6.4883   7.2191   7.2191
    10.8408  11.4019  14.5747  14.5747  14.8953  17.0431  19.0793

     occupation numbers 
     1.0000   1.0000   1.0000   1.0000   1.0000   1.0000   1.0000   1.0000
     1.0000   1.0000   0.0000   0.0000   0.0000   0.0000   0.0000

          k = 0.2946 0.0589-0.0589 (   867 PWs)   bands (ev):

   -66.9183 -35.7456 -35.7380 -35.7379  -2.9246   6.1823   7.2683   7.2907
    10.7108  11.4698  13.7723  14.1560  14.7369  17.3972  19.2562

     occupation numbers 
     1.0000   1.0000   1.0000   1.0000   1.0000   1.0000   1.0000   1.0000
     1.0000   1.0000   0.0000   0.0000   0.0000   0.0000   0.0000

          k = 0.3536 0.1179-0.1179 (   863 PWs)   bands (ev):

   -66.9179 -35.7513 -35.7393 -35.7391  -2.6253   5.8503   7.2631   7.3728
    10.7061  11.5368  12.7651  13.7707  14.4254  17.9266  19.5940

     occupation numbers 
     1.0000   1.0000   1.0000   1.0000   1.0000   1.0000   1.0000   1.0000
     1.0000   0.9996   0.0000   0.0000   0.0000   0.0000   0.0000

          k = 0.4125 0.1768-0.1768 (   866 PWs)   bands (ev):

   -66.9175 -35.7564 -35.7409 -35.7398  -2.3314   5.5801   7.1888   7.4424
    10.8350  11.5858  11.9446  13.5019  14.0221  18.1383  19.7972

     occupation numbers 
     1.0000   1.0000   1.0000   1.0000   1.0000   1.0000   1.0000   1.0000
     1.0000   0.9977   0.1864   0.0000   0.0000   0.0000   0.0000

          k =-0.2357-0.4714 0.4714 (   866 PWs)   bands (ev):

   -66.9172 -35.7594 -35.7424 -35.7400  -2.1340   5.4352   7.0789   7.4876
    10.9528  11.5183  11.6042  13.4895  13.6011  18.1094  19.9120

     occupation numbers 
     1.0000   1.0000   1.0000   1.0000   1.0000   1.0000   1.0000   1.0000
     1.0000   0.9998   0.9959   0.0000   0.0000   0.0000   0.0000

          k =-0.1768-0.4125 0.4125 (   855 PWs)   bands (ev):

   -66.9172 -35.7596 -35.7432 -35.7394  -2.1066   5.4485   6.9905   7.5047
    11.0262  11.3102  11.7388  13.2751  13.7826  18.1515  19.9739

     occupation numbers 
     1.0000   1.0000   1.0000   1.0000   1.0000   1.0000   1.0000   1.0000
     1.0000   1.0000   0.8939   0.0000   0.0000   0.0000   0.0000

          k =-0.1179-0.3536 0.3536 (   867 PWs)   bands (ev):

   -66.9174 -35.7572 -35.7431 -35.7385  -2.2602   5.6029   6.9704   7.4889
    11.0789  11.2996  11.9220  13.2085  14.2558  18.3767  19.9334

     occupation numbers 
     1.0000   1.0000   1.0000   1.0000   1.0000   1.0000   1.0000   1.0000
     1.0000   1.0000   0.2557   0.0000   0.0000   0.0000   0.0000

          k =-0.0589-0.2946 0.2946 (   865 PWs)   bands (ev):

   -66.9177 -35.7528 -35.7419 -35.7373  -2.5348   5.8447   7.0245   7.4350
    10.9375  11.4528  12.3948  13.4150  14.7595  18.6747  19.7330

     occupation numbers 
     1.0000   1.0000   1.0000   1.0000   1.0000   1.0000   1.0000   1.0000
     1.0000   1.0000   0.0000   0.0000   0.0000   0.0000   0.0000

          k = 0.0000-0.2357 0.2357 (   857 PWs)   bands (ev):

   -66.9181 -35.7478 -35.7396 -35.7361  -2.8406   6.1187   7.1135   7.3506
    10.9272  11.3763  13.2676  13.7618  15.1633  18.2702  19.7654

     occupation numbers 
     1.0000   1.0000   1.0000   1.0000   1.0000   1.0000   1.0000   1.0000
     1.0000   1.0000   0.0000   0.0000   0.0000   0.0000   0.0000

          k = 0.3536 0.0000 0.0000 (   849 PWs)   bands (ev):

   -66.9180 -35.7478 -35.7393 -35.7393  -2.7446   5.9655   7.3604   7.3604
    10.4981  11.5769  13.7172  13.7172  14.2453  17.0810  19.2833

     occupation numbers 
     1.0000   1.0000   1.0000   1.0000   1.0000   1.0000   1.0000   1.0000
     1.0000   0.9983   0.0000   0.0000   0.0000   0.0000   0.0000

          k = 0.4125 0.0589-0.0589 (   857 PWs)   bands (ev):

   -66.9176 -35.7520 -35.7408 -35.7406  -2.4922   5.7190   7.3880   7.4465
    10.4131  11.6565  12.9207  13.3316  13.9410  17.3531  19.3641

     occupation numbers 
     1.0000   1.0000   1.0000   1.0000   1.0000   1.0000   1.0000   1.0000
     1.0000   0.9823   0.0000   0.0000   0.0000   0.0000   0.0000

          k = 0.4714 0.1179-0.1179 (   863 PWs)   bands (ev):

   -66.9173 -35.7559 -35.7429 -35.7413  -2.2288   5.5578   7.2662   7.5240
    10.4827  11.6846  12.0198  13.0918  13.6698  17.8250  19.5897

     occupation numbers 
     1.0000   1.0000   1.0000   1.0000   1.0000   1.0000   1.0000   1.0000
     1.0000   0.9649   0.0471   0.0000   0.0000   0.0000   0.0000

          k =-0.1768-0.5303 0.5303 (   863 PWs)   bands (ev):

   -66.9171 -35.7580 -35.7453 -35.7415  -2.0314   5.5460   7.0063   7.5752
    10.5550  11.5736  11.5782  13.1246  13.3506  18.0515  20.0781

     occupation numbers 
     1.0000   1.0000   1.0000   1.0000   1.0000   1.0000   1.0000   1.0000
     1.0000   0.9985   0.9982   0.0000   0.0000   0.0000   0.0000

          k =-0.1179-0.4714 0.4714 (   858 PWs)   bands (ev):

   -66.9170 -35.7580 -35.7472 -35.7409  -1.9671   5.6850   6.7004   7.5928
    10.5698  11.3412  11.7112  13.0204  13.4331  18.1670  20.4501

     occupation numbers 
     1.0000   1.0000   1.0000   1.0000   1.0000   1.0000   1.0000   1.0000
     1.0000   1.0000   0.9375   0.0000   0.0000   0.0000   0.0000

          k =-0.0589-0.4125 0.4125 (   860 PWs)   bands (ev):

   -66.9171 -35.7565 -35.7476 -35.7398  -2.0584   5.8453   6.5490   7.5741
    10.8078  11.1070  11.9872  12.8013  13.8896  18.3909  20.4915

     occupation numbers 
     1.0000   1.0000   1.0000   1.0000   1.0000   1.0000   1.0000   1.0000
     1.0000   1.0000   0.0910   0.0000   0.0000   0.0000   0.0000

          k = 0.0000-0.3536 0.3536 (   867 PWs)   bands (ev):

   -66.9174 -35.7547 -35.7457 -35.7384  -2.2708   5.8465   6.7330   7.5187
    10.9610  11.2541  12.0856  12.9452  14.3699  18.7607  20.0831

     occupation numbers 
     1.0000   1.0000   1.0000   1.0000   1.0000   1.0000   1.0000   1.0000
     1.0000   1.0000   0.0092   0.0000   0.0000   0.0000   0.0000

          k = 0.4714 0.0000 0.0000 (   866 PWs)   bands (ev):

   -66.9174 -35.7548 -35.7420 -35.7420  -2.2948   5.5037   7.5377   7.5377
    10.2288  11.7556  12.9338  12.9338  13.1917  17.1402  19.1639

     occupation numbers 
     1.0000   1.0000   1.0000   1.0000   1.0000   1.0000   1.0000   1.0000
     1.0000   0.8584   0.0000   0.0000   0.0000   0.0000   0.0000

          k = 0.5303 0.0589-0.0589 (   859 PWs)   bands (ev):

   -66.9171 -35.7576 -35.7435 -35.7427  -2.0830   5.3635   7.5240   7.6193
    10.2169  11.7943  12.1380  12.6866  13.0678  17.4200  19.1294

     occupation numbers 
     1.0000   1.0000   1.0000   1.0000   1.0000   1.0000   1.0000   1.0000
     1.0000   0.7488   0.0019   0.0000   0.0000   0.0000   0.0000

          k =-0.1179-0.5893 0.5893 (   853 PWs)   bands (ev):

   -66.9169 -35.7587 -35.7459 -35.7428  -1.9186   5.3915   7.2786   7.6688
    10.2497  11.5797  11.6694  12.7352  12.9866  17.7750  19.4917

     occupation numbers 
     1.0000   1.0000   1.0000   1.0000   1.0000   1.0000   1.0000   1.0000
     1.0000   0.9981   0.9755   0.0000   0.0000   0.0000   0.0000

          k =-0.0589-0.5303 0.5303 (   863 PWs)   bands (ev):

   -66.9169 -35.7578 -35.7489 -35.7424  -1.8539   5.6164   6.8418   7.6757
    10.2275  11.4407  11.6013  12.8455  13.0336  17.9670  20.2658

     occupation numbers 
     1.0000   1.0000   1.0000   1.0000   1.0000   1.0000   1.0000   1.0000
     1.0000   1.0000   0.9963   0.0000   0.0000   0.0000   0.0000

          k =-0.0000-0.4714 0.4714 (   866 PWs)   bands (ev):

   -66.9169 -35.7561 -35.7504 -35.7412  -1.9074   5.9688   6.3773   7.6413
    10.3925  11.2338  11.8643  12.7139  13.4509  18.1501  20.8641

     occupation numbers 
     1.0000   1.0000   1.0000   1.0000   1.0000   1.0000   1.0000   1.0000
     1.0000   1.0000   0.4772   0.0000   0.0000   0.0000   0.0000

          k = 0.5893 0.0000 0.0000 (   854 PWs)   bands (ev):

   -66.9169 -35.7598 -35.7437 -35.7437  -1.9341   5.1928   7.7003   7.7003
    10.1269  11.8933  12.2167  12.3766  12.3766  17.3447  18.8632

     occupation numbers 
     1.0000   1.0000   1.0000   1.0000   1.0000   1.0000   1.0000   1.0000
     1.0000   0.3598   0.0001   0.0000   0.0000   0.0000   0.0000

          k =-0.0589-0.6482 0.6482 (   858 PWs)   bands (ev):

   -66.9168 -35.7607 -35.7450 -35.7440  -1.8287   5.1738   7.6270   7.7416
    10.1322  11.6596  11.8111  12.3811  12.5098  17.5471  18.9156

     occupation numbers 
     1.0000   1.0000   1.0000   1.0000   1.0000   1.0000   1.0000   1.0000
     1.0000   0.9808   0.6902   0.0000   0.0000   0.0000   0.0000

          k = 0.0000-0.5893 0.5893 (   856 PWs)   bands (ev):

   -66.9168 -35.7596 -35.7471 -35.7435  -1.8005   5.3413   7.2904   7.7313
    10.1078  11.5004  11.6073  12.6586  12.6883  17.7755  19.4445

     occupation numbers 
     1.0000   1.0000   1.0000   1.0000   1.0000   1.0000   1.0000   1.0000
     1.0000   0.9999   0.9955   0.0000   0.0000   0.0000   0.0000

          k =-0.7071 0.0000 0.0000 (   846 PWs)   bands (ev):

   -66.9167 -35.7615 -35.7444 -35.7444  -1.7940   5.0832   7.7693   7.7693
    10.1352  11.8033  11.9448  12.1714  12.1715  17.4613  18.7165

     occupation numbers 
     1.0000   1.0000   1.0000   1.0000   1.0000   1.0000   1.0000   1.0000
     1.0000   0.7181   0.1856   0.0006   0.0006   0.0000   0.0000

          k = 0.2357 0.1179-0.0000 (   871 PWs)   bands (ev):

   -66.9185 -35.7435 -35.7376 -35.7360  -3.0726   6.3728   7.1888   7.2638
    10.8926  11.3674  14.1169  14.2146  15.1831  17.4625  19.3601

     occupation numbers 
     1.0000   1.0000   1.0000   1.0000   1.0000   1.0000   1.0000   1.0000
     1.0000   1.0000   0.0000   0.0000   0.0000   0.0000   0.0000

          k = 0.2946 0.1768-0.0589 (   866 PWs)   bands (ev):

   -66.9181 -35.7489 -35.7394 -35.7370  -2.7840   6.0278   7.1792   7.3530
    10.8448  11.4340  13.0999  13.8614  14.9014  18.1134  19.6689

     occupation numbers 
     1.0000   1.0000   1.0000   1.0000   1.0000   1.0000   1.0000   1.0000
     1.0000   1.0000   0.0000   0.0000   0.0000   0.0000   0.0000

          k = 0.3536 0.2357-0.1179 (   864 PWs)   bands (ev):

   -66.9177 -35.7546 -35.7408 -35.7381  -2.4704   5.6956   7.1499   7.4249
    10.9245  11.4970  12.2163  13.5581  14.4687  18.3104  19.7837

     occupation numbers 
     1.0000   1.0000   1.0000   1.0000   1.0000   1.0000   1.0000   1.0000
     1.0000   0.9999   0.0001   0.0000   0.0000   0.0000   0.0000

          k =-0.2946-0.4125 0.5303 (   863 PWs)   bands (ev):

   -66.9174 -35.7588 -35.7417 -35.7391  -2.2213   5.4521   7.1164   7.4662
    11.0872  11.3985  11.7769  13.3996  14.0046  18.1589  19.8194

     occupation numbers 
     1.0000   1.0000   1.0000   1.0000   1.0000   1.0000   1.0000   1.0000
     1.0000   1.0000   0.8026   0.0000   0.0000   0.0000   0.0000

          k =-0.2357-0.3536 0.4714 (   860 PWs)   bands (ev):

   -66.9172 -35.7603 -35.7419 -35.7395  -2.1252   5.3616   7.1018   7.4786
    11.1058  11.3780  11.6705  13.4456  13.7172  18.0725  19.8440

     occupation numbers 
     1.0000   1.0000   1.0000   1.0000   1.0000   1.0000   1.0000   1.0000
     1.0000   1.0000   0.9748   0.0000   0.0000   0.0000   0.0000

          k = 0.3536 0.1179 0.0000 (   858 PWs)   bands (ev):

   -66.9179 -35.7494 -35.7402 -35.7386  -2.6820   5.9289   7.2631   7.3872
    10.6024  11.5537  13.1923  13.5709  14.4899  17.6819  19.4441

     occupation numbers 
     1.0000   1.0000   1.0000   1.0000   1.0000   1.0000   1.0000   1.0000
     1.0000   0.9992   0.0000   0.0000   0.0000   0.0000   0.0000

          k = 0.4125 0.1768-0.0589 (   862 PWs)   bands (ev):

   -66.9175 -35.7538 -35.7423 -35.7397  -2.3989   5.7138   7.1719   7.4712
    10.6308  11.5917  12.3204  13.2200  14.1741  18.1931  19.6527

     occupation numbers 
     1.0000   1.0000   1.0000   1.0000   1.0000   1.0000   1.0000   1.0000
     1.0000   0.9973   0.0000   0.0000   0.0000   0.0000   0.0000

          k =-0.2357-0.4714 0.5893 (   867 PWs)   bands (ev):

   -66.9173 -35.7572 -35.7440 -35.7406  -2.1514   5.5958   7.0078   7.5259
    10.7394  11.4032  11.8454  13.0745  13.8071  18.3976  19.8397

     occupation numbers 
     1.0000   1.0000   1.0000   1.0000   1.0000   1.0000   1.0000   1.0000
     1.0000   1.0000   0.5554   0.0000   0.0000   0.0000   0.0000

          k =-0.1768-0.4125 0.5303 (   859 PWs)   bands (ev):

   -66.9171 -35.7586 -35.7453 -35.7408  -2.0202   5.5904   6.8371   7.5518
    10.7329  11.3016  11.7140  13.1159  13.5466  18.4106  19.9317

     occupation numbers 
     1.0000   1.0000   1.0000   1.0000   1.0000   1.0000   1.0000   1.0000
     1.0000   1.0000   0.9339   0.0000   0.0000   0.0000   0.0000

          k =-0.1179-0.3536 0.4714 (   860 PWs)   bands (ev):

   -66.9171 -35.7580 -35.7457 -35.7402  -2.0539   5.6584   6.7631   7.5509
    10.8331  11.1714  11.8465  12.9820  13.7707  18.5450  19.8856

     occupation numbers 
     1.0000   1.0000   1.0000   1.0000   1.0000   1.0000   1.0000   1.0000
     1.0000   1.0000   0.5509   0.0000   0.0000   0.0000   0.0000

          k =-0.0589-0.2946 0.4125 (   863 PWs)   bands (ev):

   -66.9174 -35.7556 -35.7449 -35.7391  -2.2389   5.7460   6.8471   7.5178
    10.8981  11.2899  12.0222  12.9851  14.2064  18.8936  19.6616

     occupation numbers 
     1.0000   1.0000   1.0000   1.0000   1.0000   1.0000   1.0000   1.0000
     1.0000   1.0000   0.0447   0.0000   0.0000   0.0000   0.0000

          k = 0.0000-0.2357 0.3536 (   859 PWs)   bands (ev):

   -66.9177 -35.7523 -35.7425 -35.7379  -2.5093   5.8613   7.0238   7.4483
    10.8162  11.4987  12.4506  13.2800  14.6239  18.9414  19.5267

     occupation numbers 
     1.0000   1.0000   1.0000   1.0000   1.0000   1.0000   1.0000   1.0000
     1.0000   0.9999   0.0000   0.0000   0.0000   0.0000   0.0000

          k = 0.4714 0.1179 0.0000 (   862 PWs)   bands (ev):

   -66.9174 -35.7551 -35.7428 -35.7415  -2.2582   5.5471   7.3671   7.5408
    10.3613  11.6971  12.3547  12.8939  13.6510  17.6067  19.3486

     occupation numbers 
     1.0000   1.0000   1.0000   1.0000   1.0000   1.0000   1.0000   1.0000
     1.0000   0.9536   0.0000   0.0000   0.0000   0.0000   0.0000

          k =-0.1768-0.5303 0.6482 (   863 PWs)   bands (ev):

   -66.9171 -35.7573 -35.7451 -35.7423  -2.0424   5.5070   7.1816   7.6026
    10.4033  11.4446  11.9227  12.7165  13.4541  18.0342  19.6015

     occupation numbers 
     1.0000   1.0000   1.0000   1.0000   1.0000   1.0000   1.0000   1.0000
     1.0000   1.0000   0.2535   0.0000   0.0000   0.0000   0.0000

          k =-0.1179-0.4714 0.5893 (   861 PWs)   bands (ev):

   -66.9169 -35.7577 -35.7476 -35.7424  -1.9111   5.6384   6.8475   7.6288
    10.3623  11.2634  11.7542  12.7900  13.3077  18.2525  20.2073

     occupation numbers 
     1.0000   1.0000   1.0000   1.0000   1.0000   1.0000   1.0000   1.0000
     1.0000   1.0000   0.8616   0.0000   0.0000   0.0000   0.0000

          k =-0.0589-0.4125 0.5303 (   862 PWs)   bands (ev):

   -66.9169 -35.7566 -35.7494 -35.7417  -1.9073   5.8990   6.4753   7.6247
    10.4080  11.1781  11.8360  12.7416  13.4624  18.4192  20.5431

     occupation numbers 
     1.0000   1.0000   1.0000   1.0000   1.0000   1.0000   1.0000   1.0000
     1.0000   1.0000   0.5939   0.0000   0.0000   0.0000   0.0000

          k =-0.0000-0.3536 0.4714 (   862 PWs)   bands (ev):

   -66.9171 -35.7558 -35.7485 -35.7404  -2.0306   5.9270   6.4856   7.5881
    10.7223  11.0467  12.0300  12.6821  13.8345  18.6928  20.2896

     occupation numbers 
     1.0000   1.0000   1.0000   1.0000   1.0000   1.0000   1.0000   1.0000
     1.0000   1.0000   0.0376   0.0000   0.0000   0.0000   0.0000

          k =-0.1179-0.5893 0.7071 (   863 PWs)   bands (ev):

   -66.9169 -35.7592 -35.7448 -35.7437  -1.9225   5.2998   7.4827   7.6784
    10.1927  11.5492  11.9648  12.4136  12.9555  17.6570  19.1284

     occupation numbers 
     1.0000   1.0000   1.0000   1.0000   1.0000   1.0000   1.0000   1.0000
     1.0000   0.9994   0.1353   0.0000   0.0000   0.0000   0.0000

          k =-0.0589-0.5303 0.6482 (   863 PWs)   bands (ev):

   -66.9168 -35.7590 -35.7470 -35.7438  -1.8259   5.4158   7.2127   7.6921
    10.1435  11.2681  11.8298  12.4709  13.0178  17.9754  19.5563

     occupation numbers 
     1.0000   1.0000   1.0000   1.0000   1.0000   1.0000   1.0000   1.0000
     1.0000   1.0000   0.6185   0.0000   0.0000   0.0000   0.0000

          k =-0.0000-0.4714 0.5893 (   864 PWs)   bands (ev):

   -66.9168 -35.7574 -35.7495 -35.7430  -1.8219   5.6923   6.7687   7.6736
    10.1548  11.2247  11.7660  12.6209  13.1778  18.1956  20.3440

     occupation numbers 
     1.0000   1.0000   1.0000   1.0000   1.0000   1.0000   1.0000   1.0000
     1.0000   1.0000   0.8327   0.0000   0.0000   0.0000   0.0000

          k =-0.7071 0.1179 0.0000 (   858 PWs)   bands (ev):

   -66.9168 -35.7605 -35.7455 -35.7445  -1.7932   5.2155   7.5428   7.7334
    10.1108  11.3930  11.9151  12.2443  12.7025  17.7052  19.0311

     occupation numbers 
     1.0000   1.0000   1.0000   1.0000   1.0000   1.0000   1.0000   1.0000
     1.0000   1.0000   0.2792   0.0000   0.0000   0.0000   0.0000

          k =-0.2357-0.4714 0.7071 (   857 PWs)   bands (ev):

   -66.9172 -35.7556 -35.7453 -35.7407  -2.1600   5.6853   6.9587   7.5542
    10.6406  11.3332  12.0512  12.7884  13.9120  18.7307  19.6954

     occupation numbers 
     1.0000   1.0000   1.0000   1.0000   1.0000   1.0000   1.0000   1.0000
     1.0000   1.0000   0.0227   0.0000   0.0000   0.0000   0.0000

          k =-0.1768-0.4125 0.6482 (   862 PWs)   bands (ev):

   -66.9170 -35.7567 -35.7476 -35.7418  -1.9765   5.7682   6.7000   7.5959
    10.5532  11.0840  11.9271  12.6972  13.6273  18.8717  19.9271

     occupation numbers 
     1.0000   1.0000   1.0000   1.0000   1.0000   1.0000   1.0000   1.0000
     1.0000   1.0000   0.2389   0.0000   0.0000   0.0000   0.0000

          k =-0.1179-0.3536 0.5893 (   866 PWs)   bands (ev):

   -66.9169 -35.7571 -35.7484 -35.7423  -1.9073   5.8468   6.5574   7.6064
    10.4260  11.1173  11.8132  12.7648  13.4728  18.8278  20.0308

     occupation numbers 
     1.0000   1.0000   1.0000   1.0000   1.0000   1.0000   1.0000   1.0000
     1.0000   1.0000   0.6823   0.0000   0.0000   0.0000   0.0000

          k =-0.1179-0.4714 0.7071 (   868 PWs)   bands (ev):

   -66.9169 -35.7575 -35.7474 -35.7434  -1.8923   5.6061   6.9592   7.6375
    10.2880  11.1080  11.9507  12.4899  13.3693  18.4684  19.8904

     occupation numbers 
     1.0000   1.0000   1.0000   1.0000   1.0000   1.0000   1.0000   1.0000
     1.0000   1.0000   0.1696   0.0000   0.0000   0.0000   0.0000

          k =-0.0589-0.4125 0.6482 (   870 PWs)   bands (ev):

   -66.9168 -35.7567 -35.7494 -35.7439  -1.8230   5.8352   6.6372   7.6379
    10.1561  11.0388  11.8811  12.5185  13.3458  18.7344  20.5002

     occupation numbers 
     1.0000   1.0000   1.0000   1.0000   1.0000   1.0000   1.0000   1.0000
     1.0000   1.0000   0.4085   0.0000   0.0000   0.0000   0.0000

          k = 0.0000-0.3536 0.5893 (   861 PWs)   bands (ev):

   -66.9169 -35.7560 -35.7500 -35.7431  -1.8548   5.9879   6.4381   7.6285
    10.2550  11.0296  11.9041  12.5595  13.4453  18.9034  20.4516

     occupation numbers 
     1.0000   1.0000   1.0000   1.0000   1.0000   1.0000   1.0000   1.0000
     1.0000   1.0000   0.3191   0.0000   0.0000   0.0000   0.0000

          k =-0.7071 0.2357 0.0000 (   870 PWs)   bands (ev):

   -66.9168 -35.7581 -35.7481 -35.7446  -1.7916   5.5877   6.9849   7.6633
    10.0713  11.0676  11.9210  12.3755  13.1867  18.3874  19.9531

     occupation numbers 
     1.0000   1.0000   1.0000   1.0000   1.0000   1.0000   1.0000   1.0000
     1.0000   1.0000   0.2590   0.0000   0.0000   0.0000   0.0000

          k =-0.7071 0.3536 0.0000 (   876 PWs)   bands (ev):

   -66.9168 -35.7562 -35.7501 -35.7446  -1.7908   5.9708   6.5109   7.6291
    10.0547  10.9689  11.9242  12.4341  13.3565  18.9702  21.2206

     occupation numbers 
     1.0000   1.0000   1.0000   1.0000   1.0000   1.0000   1.0000   1.0000
     1.0000   1.0000   0.2483   0.0000   0.0000   0.0000   0.0000

     the Fermi energy is    11.8588 ev
     (compare with:    11.8218 eV, computed in scf)

     Writing all to output data dir ./temp/mns.save/ :
     XML data file, pseudopotentials, collected wavefunctions

     init_run     :      0.55s CPU      0.59s WALL (       1 calls)
     electrons    :     17.57s CPU     17.98s WALL (       1 calls)

     Called by init_run:
     wfcinit      :      0.00s CPU      0.00s WALL (       1 calls)
     wfcinit:atom :      0.01s CPU      0.01s WALL (     144 calls)
     wfcinit:wfcr :      0.33s CPU      0.35s WALL (     144 calls)
     potinit      :      0.27s CPU      0.31s WALL (       1 calls)
     hinit0       :      0.23s CPU      0.24s WALL (       1 calls)

     Called by electrons:
     c_bands      :     17.57s CPU     17.97s WALL (       1 calls)
     v_of_rho     :      0.01s CPU      0.01s WALL (       1 calls)
     v_h          :      0.00s CPU      0.00s WALL (       1 calls)
     v_xc         :      0.01s CPU      0.01s WALL (       1 calls)
     newd         :      0.02s CPU      0.02s WALL (       1 calls)
     PAW_pot      :      0.21s CPU      0.25s WALL (       1 calls)

     Called by c_bands:
     init_us_2    :      0.01s CPU      0.01s WALL (     144 calls)
     cegterg      :     17.18s CPU     17.55s WALL (     473 calls)

     Called by sum_band:

     Called by *egterg:
     cdiaghg      :      2.37s CPU      2.42s WALL (    8334 calls)
     cegterg:over :      1.49s CPU      1.53s WALL (    8190 calls)
     cegterg:upda :      0.61s CPU      0.62s WALL (    8190 calls)
     cegterg:last :      1.78s CPU      1.80s WALL (    5044 calls)
     h_psi        :      9.85s CPU     10.11s WALL (    8807 calls)
     s_psi        :      0.86s CPU      0.89s WALL (    8807 calls)
     g_psi        :      0.04s CPU      0.04s WALL (    8190 calls)

     Called by h_psi:
     h_psi:calbec :      1.02s CPU      1.06s WALL (    8807 calls)
     vloc_psi     :      7.92s CPU      8.10s WALL (    8807 calls)
     add_vuspsi   :      0.87s CPU      0.90s WALL (    8807 calls)

     General routines
     calbec       :      1.01s CPU      1.05s WALL (    8807 calls)
     fft          :      0.11s CPU      0.11s WALL (      23 calls)
     ffts         :      0.05s CPU      0.05s WALL (       2 calls)
     fftw         :      7.30s CPU      7.47s WALL (  151614 calls)
     interpolate  :      0.05s CPU      0.05s WALL (       2 calls)
     davcio       :      0.01s CPU      0.01s WALL (     288 calls)

     Parallel routines

     PAW routines
     PAW_pot      :      0.21s CPU      0.25s WALL (       1 calls)

     PWSCF        :     18.53s CPU     19.02s WALL


   This run was terminated on:  13:30:15  30Jan2025            

=------------------------------------------------------------------------------=
   JOB DONE.
=------------------------------------------------------------------------------=
