
     Program PWSCF v.7.3.1 starts on 30Jan2025 at 13:29: 2 

     This program is part of the open-source Quantum ESPRESSO suite
     for quantum simulation of materials; please cite
         "P. Giannozzi et al., J. Phys.:Condens. Matter 21 395502 (2009);
         "P. Giannozzi et al., J. Phys.:Condens. Matter 29 465901 (2017);
         "P. Giannozzi et al., J. Chem. Phys. 152 154105 (2020);
          URL http://www.quantum-espresso.org", 
     in publications or presentations arising from this work. More details at
     http://www.quantum-espresso.org/quote

     Parallel version (MPI), running on     6 processors

     MPI processes distributed on     1 nodes
     1595 MiB available memory on the printing compute node when the environment starts

     Reading input from scf.in

     Current dimensions of program PWSCF are:
     Max number of different atomic species (ntypx) = 10
     Max number of k-points (npk) =  40000
     Max angular momentum in pseudopotentials (lmaxx) =  4
     file Mn.pbe-spn-kjpaw_psl.0.3.1.UPF: wavefunction(s)  3P 3D renormalized
     file S.pbe-n-kjpaw_psl.1.0.0.UPF: wavefunction(s)  3S 3P renormalized

     R & G space division:  proc/nbgrp/npool/nimage =       6
     Subspace diagonalization in iterative solution of the eigenvalue problem:
     a serial algorithm will be used


     Parallelization info
     --------------------
     sticks:   dense  smooth     PW     G-vecs:    dense   smooth      PW
     Min          90      79     25                 1381     1142     206
     Max          92      80     26                 1382     1145     209
     Sum         547     475    151                 8291     6855    1243

     Using Slab Decomposition



     bravais-lattice index     =           -5
     lattice parameter (alat)  =       6.5874  a.u.
     unit-cell volume          =     202.1308 (a.u.)^3
     number of atoms/cell      =            2
     number of atomic types    =            2
     number of electrons       =        21.00
     number of Kohn-Sham states=           15
     kinetic-energy cutoff     =      40.0000  Ry
     charge density cutoff     =     180.0000  Ry
     scf convergence threshold =      1.0E-10
     mixing beta               =       0.7000
     number of iterations used =            8  plain     mixing
     Exchange-correlation= SLA  PW   PBX  PBC
                           (   1   4   3   4   0   0   0)

     celldm(1)=   6.587427  celldm(2)=   0.000000  celldm(3)=   0.000000
     celldm(4)=   0.500000  celldm(5)=   0.000000  celldm(6)=   0.000000

     crystal axes: (cart. coord. in units of alat)
               a(1) = (   0.000000   0.707107   0.707107 )  
               a(2) = (   0.707107   0.000000   0.707107 )  
               a(3) = (   0.707107   0.707107   0.000000 )  

     reciprocal axes: (cart. coord. in units 2 pi/alat)
               b(1) = ( -0.707107  0.707107  0.707107 )  
               b(2) = (  0.707107 -0.707107  0.707107 )  
               b(3) = (  0.707107  0.707107 -0.707107 )  


     PseudoPot. # 1 for Mn read from file:
     ./../../pseudos/Mn.pbe-spn-kjpaw_psl.0.3.1.UPF
     MD5 check sum: ba19e6d7ccbc12830efad05ba8577d9c
     Pseudo is Projector augmented-wave + core cor, Zval = 15.0
     Generated using &quot;atomic&quot; code by A. Dal Corso  v.6.2.2
     Shape of augmentation charge: PSQ
     Using radial grid of 1187 points,  6 beta functions with: 
                l(1) =   0
                l(2) =   0
                l(3) =   1
                l(4) =   1
                l(5) =   2
                l(6) =   2
     Q(r) pseudized with 0 coefficients 


     PseudoPot. # 2 for S  read from file:
     ./../../pseudos/S.pbe-n-kjpaw_psl.1.0.0.UPF
     MD5 check sum: fb45dfebcf3e72a4e1bd4a866ec2e262
     Pseudo is Projector augmented-wave + core cor, Zval =  6.0
     Generated using &quot;atomic&quot; code by A. Dal Corso  v.6.3
     Shape of augmentation charge: PSQ
     Using radial grid of 1151 points,  6 beta functions with: 
                l(1) =   0
                l(2) =   0
                l(3) =   1
                l(4) =   1
                l(5) =   2
                l(6) =   2
     Q(r) pseudized with 0 coefficients 


     atomic species   valence    mass     pseudopotential
     Mn               15.00    54.93800     Mn( 1.00)
     S                 6.00    32.06500     S ( 1.00)

     Starting magnetic structure 
     atomic species   magnetization
     Mn              0.200
     S               0.000

     24 Sym. Ops. (no inversion) found


                                    s                        frac. trans.

      isym =  1     identity                                     

 cryst.   s( 1) = (     1          0          0      )
                  (     0          1          0      )
                  (     0          0          1      )

 cart.    s( 1) = (  1.0000000  0.0000000  0.0000000 )
                  (  0.0000000  1.0000000  0.0000000 )
                  (  0.0000000  0.0000000  1.0000000 )


      isym =  2     180 deg rotation - cart. axis [0,0,1]        

 cryst.   s( 2) = (     0          1         -1      )
                  (     1          0         -1      )
                  (     0          0         -1      )

 cart.    s( 2) = ( -1.0000000  0.0000000  0.0000000 )
                  (  0.0000000 -1.0000000  0.0000000 )
                  (  0.0000000  0.0000000  1.0000000 )


      isym =  3     180 deg rotation - cart. axis [0,1,0]        

 cryst.   s( 3) = (     0         -1          1      )
                  (     0         -1          0      )
                  (     1         -1          0      )

 cart.    s( 3) = ( -1.0000000  0.0000000  0.0000000 )
                  (  0.0000000  1.0000000  0.0000000 )
                  (  0.0000000  0.0000000 -1.0000000 )


      isym =  4     180 deg rotation - cart. axis [1,0,0]        

 cryst.   s( 4) = (    -1          0          0      )
                  (    -1          0          1      )
                  (    -1          1          0      )

 cart.    s( 4) = (  1.0000000  0.0000000  0.0000000 )
                  (  0.0000000 -1.0000000  0.0000000 )
                  (  0.0000000  0.0000000 -1.0000000 )


      isym =  5     120 deg rotation - cart. axis [-1,-1,-1]     

 cryst.   s( 5) = (     0          0          1      )
                  (     1          0          0      )
                  (     0          1          0      )

 cart.    s( 5) = (  0.0000000  1.0000000  0.0000000 )
                  (  0.0000000  0.0000000  1.0000000 )
                  (  1.0000000  0.0000000  0.0000000 )


      isym =  6     120 deg rotation - cart. axis [-1,1,1]       

 cryst.   s( 6) = (     1         -1          0      )
                  (     0         -1          1      )
                  (     0         -1          0      )

 cart.    s( 6) = (  0.0000000 -1.0000000  0.0000000 )
                  (  0.0000000  0.0000000  1.0000000 )
                  ( -1.0000000  0.0000000  0.0000000 )


      isym =  7     120 deg rotation - cart. axis [1,1,-1]       

 cryst.   s( 7) = (    -1          1          0      )
                  (    -1          0          0      )
                  (    -1          0          1      )

 cart.    s( 7) = (  0.0000000  1.0000000  0.0000000 )
                  (  0.0000000  0.0000000 -1.0000000 )
                  ( -1.0000000  0.0000000  0.0000000 )


      isym =  8     120 deg rotation - cart. axis [1,-1,1]       

 cryst.   s( 8) = (     0          0         -1      )
                  (     0          1         -1      )
                  (     1          0         -1      )

 cart.    s( 8) = (  0.0000000 -1.0000000  0.0000000 )
                  (  0.0000000  0.0000000 -1.0000000 )
                  (  1.0000000  0.0000000  0.0000000 )


      isym =  9     120 deg rotation - cart. axis [1,1,1]        

 cryst.   s( 9) = (     0          1          0      )
                  (     0          0          1      )
                  (     1          0          0      )

 cart.    s( 9) = (  0.0000000  0.0000000  1.0000000 )
                  (  1.0000000  0.0000000  0.0000000 )
                  (  0.0000000  1.0000000  0.0000000 )


      isym = 10     120 deg rotation - cart. axis [-1,1,-1]      

 cryst.   s(10) = (    -1          0          1      )
                  (    -1          1          0      )
                  (    -1          0          0      )

 cart.    s(10) = (  0.0000000  0.0000000  1.0000000 )
                  ( -1.0000000  0.0000000  0.0000000 )
                  (  0.0000000 -1.0000000  0.0000000 )


      isym = 11     120 deg rotation - cart. axis [1,-1,-1]      

 cryst.   s(11) = (     1          0         -1      )
                  (     0          0         -1      )
                  (     0          1         -1      )

 cart.    s(11) = (  0.0000000  0.0000000 -1.0000000 )
                  ( -1.0000000  0.0000000  0.0000000 )
                  (  0.0000000  1.0000000  0.0000000 )


      isym = 12     120 deg rotation - cart. axis [-1,-1,1]      

 cryst.   s(12) = (     0         -1          0      )
                  (     1         -1          0      )
                  (     0         -1          1      )

 cart.    s(12) = (  0.0000000  0.0000000 -1.0000000 )
                  (  1.0000000  0.0000000  0.0000000 )
                  (  0.0000000 -1.0000000  0.0000000 )


      isym = 13     inv. 180 deg rotation - cart. axis [1,1,0]   

 cryst.   s(13) = (     1          0         -1      )
                  (     0          1         -1      )
                  (     0          0         -1      )

 cart.    s(13) = (  0.0000000 -1.0000000  0.0000000 )
                  ( -1.0000000  0.0000000  0.0000000 )
                  (  0.0000000  0.0000000  1.0000000 )


      isym = 14     inv. 180 deg rotation - cart. axis [1,-1,0]  

 cryst.   s(14) = (     0          1          0      )
                  (     1          0          0      )
                  (     0          0          1      )

 cart.    s(14) = (  0.0000000  1.0000000  0.0000000 )
                  (  1.0000000  0.0000000  0.0000000 )
                  (  0.0000000  0.0000000  1.0000000 )


      isym = 15     inv.  90 deg rotation - cart. axis [0,0,-1]  

 cryst.   s(15) = (     0         -1          0      )
                  (     0         -1          1      )
                  (     1         -1          0      )

 cart.    s(15) = (  0.0000000 -1.0000000  0.0000000 )
                  (  1.0000000  0.0000000  0.0000000 )
                  (  0.0000000  0.0000000 -1.0000000 )


      isym = 16     inv.  90 deg rotation - cart. axis [0,0,1]   

 cryst.   s(16) = (    -1          0          1      )
                  (    -1          0          0      )
                  (    -1          1          0      )

 cart.    s(16) = (  0.0000000  1.0000000  0.0000000 )
                  ( -1.0000000  0.0000000  0.0000000 )
                  (  0.0000000  0.0000000 -1.0000000 )


      isym = 17     inv. 180 deg rotation - cart. axis [1,0,1]   

 cryst.   s(17) = (     1         -1          0      )
                  (     0         -1          0      )
                  (     0         -1          1      )

 cart.    s(17) = (  0.0000000  0.0000000 -1.0000000 )
                  (  0.0000000  1.0000000  0.0000000 )
                  ( -1.0000000  0.0000000  0.0000000 )


      isym = 18     inv. 180 deg rotation - cart. axis [-1,0,1]  

 cryst.   s(18) = (     0          0          1      )
                  (     0          1          0      )
                  (     1          0          0      )

 cart.    s(18) = (  0.0000000  0.0000000  1.0000000 )
                  (  0.0000000  1.0000000  0.0000000 )
                  (  1.0000000  0.0000000  0.0000000 )


      isym = 19     inv.  90 deg rotation - cart. axis [0,1,0]   

 cryst.   s(19) = (     0          0         -1      )
                  (     1          0         -1      )
                  (     0          1         -1      )

 cart.    s(19) = (  0.0000000  0.0000000 -1.0000000 )
                  (  0.0000000 -1.0000000  0.0000000 )
                  (  1.0000000  0.0000000  0.0000000 )


      isym = 20     inv.  90 deg rotation - cart. axis [0,-1,0]  

 cryst.   s(20) = (    -1          1          0      )
                  (    -1          0          1      )
                  (    -1          0          0      )

 cart.    s(20) = (  0.0000000  0.0000000  1.0000000 )
                  (  0.0000000 -1.0000000  0.0000000 )
                  ( -1.0000000  0.0000000  0.0000000 )


      isym = 21     inv. 180 deg rotation - cart. axis [0,1,1]   

 cryst.   s(21) = (    -1          0          0      )
                  (    -1          1          0      )
                  (    -1          0          1      )

 cart.    s(21) = (  1.0000000  0.0000000  0.0000000 )
                  (  0.0000000  0.0000000 -1.0000000 )
                  (  0.0000000 -1.0000000  0.0000000 )


      isym = 22     inv. 180 deg rotation - cart. axis [0,1,-1]  

 cryst.   s(22) = (     1          0          0      )
                  (     0          0          1      )
                  (     0          1          0      )

 cart.    s(22) = (  1.0000000  0.0000000  0.0000000 )
                  (  0.0000000  0.0000000  1.0000000 )
                  (  0.0000000  1.0000000  0.0000000 )


      isym = 23     inv.  90 deg rotation - cart. axis [-1,0,0]  

 cryst.   s(23) = (     0          1         -1      )
                  (     0          0         -1      )
                  (     1          0         -1      )

 cart.    s(23) = ( -1.0000000  0.0000000  0.0000000 )
                  (  0.0000000  0.0000000 -1.0000000 )
                  (  0.0000000  1.0000000  0.0000000 )


      isym = 24     inv.  90 deg rotation - cart. axis [1,0,0]   

 cryst.   s(24) = (     0         -1          1      )
                  (     1         -1          0      )
                  (     0         -1          0      )

 cart.    s(24) = ( -1.0000000  0.0000000  0.0000000 )
                  (  0.0000000  0.0000000  1.0000000 )
                  (  0.0000000 -1.0000000  0.0000000 )


     point group T_d (-43m) 
     there are  5 classes
     the character table:

       E     8C3   3C2   6S4   6s_d 
A_1    1.00  1.00  1.00  1.00  1.00
A_2    1.00  1.00  1.00 -1.00 -1.00
E      2.00 -1.00  2.00  0.00  0.00
T_1    3.00  0.00 -1.00  1.00 -1.00
T_2    3.00  0.00 -1.00 -1.00  1.00

     the symmetry operations in each class and the name of the first element:

     E        1
          identity                                               
     8C3      5    7    8    6   12    9   10   11
          120 deg rotation - cart. axis [-1,-1,-1]               
     3C2      2    3    4
          180 deg rotation - cart. axis [0,0,1]                  
     6S4     15   16   20   19   23   24
          inv.  90 deg rotation - cart. axis [0,0,-1]            
     6s_d    13   14   17   18   21   22
          inv. 180 deg rotation - cart. axis [1,1,0]             

   Cartesian axes

     site n.     atom                  positions (alat units)
         1        Mn     tau(   1) = (   1.0606597   1.0606597   1.0606597  )
         2        S      tau(   2) = (   0.0000000   0.0000000   0.0000000  )

   Crystallographic axes

     site n.     atom                  positions (cryst. coord.)
         1        Mn     tau(   1) = (  0.7499996  0.7499996  0.7499996  )
         2        S      tau(   2) = (  0.0000000  0.0000000  0.0000000  )

     number of k points=    16  Gaussian smearing, width (Ry)=  0.0100
                       cart. coord. in units 2pi/alat
        k(    1) = (   0.0000000   0.0000000   0.0000000), wk =   0.0046296
        k(    2) = (   0.1178511   0.1178511  -0.1178511), wk =   0.0370370
        k(    3) = (   0.2357023   0.2357023  -0.2357023), wk =   0.0370370
        k(    4) = (  -0.3535534  -0.3535534   0.3535534), wk =   0.0185185
        k(    5) = (   0.2357023   0.0000000   0.0000000), wk =   0.0277778
        k(    6) = (   0.3535534   0.1178511  -0.1178511), wk =   0.1111111
        k(    7) = (  -0.2357023  -0.4714045   0.4714045), wk =   0.1111111
        k(    8) = (  -0.1178511  -0.3535534   0.3535534), wk =   0.1111111
        k(    9) = (   0.0000000  -0.2357023   0.2357023), wk =   0.0555556
        k(   10) = (   0.4714045   0.0000000   0.0000000), wk =   0.0277778
        k(   11) = (  -0.1178511  -0.5892557   0.5892557), wk =   0.1111111
        k(   12) = (  -0.0000000  -0.4714045   0.4714045), wk =   0.0555556
        k(   13) = (  -0.7071068   0.0000000   0.0000000), wk =   0.0138889
        k(   14) = (  -0.2357023  -0.4714045   0.7071068), wk =   0.1111111
        k(   15) = (  -0.1178511  -0.3535534   0.5892557), wk =   0.1111111
        k(   16) = (  -0.7071068   0.2357023   0.0000000), wk =   0.0555556

                       cryst. coord.
        k(    1) = (   0.0000000   0.0000000   0.0000000), wk =   0.0046296
        k(    2) = (   0.0000000   0.0000000   0.1666667), wk =   0.0370370
        k(    3) = (   0.0000000   0.0000000   0.3333333), wk =   0.0370370
        k(    4) = (   0.0000000   0.0000000  -0.5000000), wk =   0.0185185
        k(    5) = (   0.0000000   0.1666667   0.1666667), wk =   0.0277778
        k(    6) = (   0.0000000   0.1666667   0.3333333), wk =   0.1111111
        k(    7) = (   0.0000000   0.1666667  -0.5000000), wk =   0.1111111
        k(    8) = (   0.0000000   0.1666667  -0.3333333), wk =   0.1111111
        k(    9) = (   0.0000000   0.1666667  -0.1666667), wk =   0.0555556
        k(   10) = (   0.0000000   0.3333333   0.3333333), wk =   0.0277778
        k(   11) = (   0.0000000   0.3333333  -0.5000000), wk =   0.1111111
        k(   12) = (   0.0000000   0.3333333  -0.3333333), wk =   0.0555556
        k(   13) = (   0.0000000  -0.5000000  -0.5000000), wk =   0.0138889
        k(   14) = (   0.1666667   0.3333333  -0.5000000), wk =   0.1111111
        k(   15) = (   0.1666667   0.3333333  -0.3333333), wk =   0.1111111
        k(   16) = (   0.1666667  -0.5000000  -0.3333333), wk =   0.0555556

     Dense  grid:     8291 G-vectors     FFT dimensions: (  30,  30,  30)

     Smooth grid:     6855 G-vectors     FFT dimensions: (  27,  27,  27)

     Dynamical RAM for                 wfc:       0.03 MB

     Dynamical RAM for     wfc (w. buffer):       1.09 MB

     Dynamical RAM for           str. fact:       0.04 MB

     Dynamical RAM for           local pot:       0.00 MB

     Dynamical RAM for          nlocal pot:       0.08 MB

     Dynamical RAM for                qrad:       2.15 MB

     Dynamical RAM for          rho,v,vnew:       0.33 MB

     Dynamical RAM for               rhoin:       0.11 MB

     Dynamical RAM for            rho*nmix:       0.67 MB

     Dynamical RAM for           G-vectors:       0.09 MB

     Dynamical RAM for          h,s,v(r/c):       0.04 MB

     Dynamical RAM for          <psi|beta>:       0.01 MB

     Dynamical RAM for                 psi:       0.07 MB

     Dynamical RAM for                hpsi:       0.07 MB

     Dynamical RAM for                spsi:       0.07 MB

     Dynamical RAM for      wfcinit/wfcrot:       0.07 MB

     Dynamical RAM for           addusdens:       3.96 MB

     Estimated static dynamical RAM per process >       4.16 MB

     Estimated max dynamical RAM per process >       8.80 MB

     Estimated total dynamical RAM >      52.82 MB

     Check: negative core charge=   -0.000107
     Generating pointlists ...
     new r_m :   0.2526 (alat units)  1.6640 (a.u.) for type    1
     new r_m :   0.2526 (alat units)  1.6640 (a.u.) for type    2

     Initial potential from superposition of free atoms

     starting charge      20.9995, renormalised to      21.0000
     Starting wfcs are   14 randomized atomic wfcs +    1 random wfcs
     Checking if some PAW data can be deallocated... 
       PAW data deallocated on    3 nodes for type:  1
       PAW data deallocated on    3 nodes for type:  2

     total cpu time spent up to now is        1.7 secs

     Self-consistent Calculation

     iteration #  1     ecut=    40.00 Ry     beta= 0.70
     Davidson diagonalization with overlap

---- Real-time Memory Report at c_bands before calling an iterative solver
            58 MiB given to the printing process from OS
             0 MiB allocation reported by mallinfo(arena+hblkhd)
          1306 MiB available memory on the node where the printing process lives
------------------
     ethr =  1.00E-02,  avg # of iterations =  5.0

     Threshold (ethr) on eigenvalues was too large:
     Diagonalizing with lowered threshold

     Davidson diagonalization with overlap

---- Real-time Memory Report at c_bands before calling an iterative solver
            58 MiB given to the printing process from OS
             0 MiB allocation reported by mallinfo(arena+hblkhd)
          1307 MiB available memory on the node where the printing process lives
------------------
     ethr =  3.74E-04,  avg # of iterations =  2.8

     total cpu time spent up to now is        3.0 secs

     total energy              =    -352.80683090 Ry
     estimated scf accuracy    <       0.07711265 Ry

     total magnetization       =     2.32 Bohr mag/cell
     absolute magnetization    =     2.41 Bohr mag/cell

     iteration #  2     ecut=    40.00 Ry     beta= 0.70
     Davidson diagonalization with overlap

---- Real-time Memory Report at c_bands before calling an iterative solver
            61 MiB given to the printing process from OS
             0 MiB allocation reported by mallinfo(arena+hblkhd)
          1249 MiB available memory on the node where the printing process lives
------------------
     ethr =  3.67E-04,  avg # of iterations =  3.6

     total cpu time spent up to now is        3.5 secs

     total energy              =    -352.78898527 Ry
     estimated scf accuracy    <       0.22708823 Ry

     total magnetization       =     2.09 Bohr mag/cell
     absolute magnetization    =     2.18 Bohr mag/cell

     iteration #  3     ecut=    40.00 Ry     beta= 0.70
     Davidson diagonalization with overlap

---- Real-time Memory Report at c_bands before calling an iterative solver
            61 MiB given to the printing process from OS
             0 MiB allocation reported by mallinfo(arena+hblkhd)
          1253 MiB available memory on the node where the printing process lives
------------------
     ethr =  3.67E-04,  avg # of iterations =  3.3

     total cpu time spent up to now is        4.0 secs

     total energy              =    -352.83183961 Ry
     estimated scf accuracy    <       0.01899408 Ry

     total magnetization       =     2.03 Bohr mag/cell
     absolute magnetization    =     2.15 Bohr mag/cell

     iteration #  4     ecut=    40.00 Ry     beta= 0.70
     Davidson diagonalization with overlap

---- Real-time Memory Report at c_bands before calling an iterative solver
            61 MiB given to the printing process from OS
             0 MiB allocation reported by mallinfo(arena+hblkhd)
          1255 MiB available memory on the node where the printing process lives
------------------
     ethr =  9.04E-05,  avg # of iterations =  2.7

     total cpu time spent up to now is        4.4 secs

     total energy              =    -352.83601678 Ry
     estimated scf accuracy    <       0.00160159 Ry

     total magnetization       =     1.89 Bohr mag/cell
     absolute magnetization    =     2.02 Bohr mag/cell

     iteration #  5     ecut=    40.00 Ry     beta= 0.70
     Davidson diagonalization with overlap

---- Real-time Memory Report at c_bands before calling an iterative solver
            61 MiB given to the printing process from OS
             0 MiB allocation reported by mallinfo(arena+hblkhd)
          1245 MiB available memory on the node where the printing process lives
------------------
     ethr =  7.63E-06,  avg # of iterations =  2.5

     total cpu time spent up to now is        4.9 secs

     total energy              =    -352.83729333 Ry
     estimated scf accuracy    <       0.00111177 Ry

     total magnetization       =     1.66 Bohr mag/cell
     absolute magnetization    =     1.80 Bohr mag/cell

     iteration #  6     ecut=    40.00 Ry     beta= 0.70
     Davidson diagonalization with overlap

---- Real-time Memory Report at c_bands before calling an iterative solver
            61 MiB given to the printing process from OS
             0 MiB allocation reported by mallinfo(arena+hblkhd)
          1245 MiB available memory on the node where the printing process lives
------------------
     ethr =  5.29E-06,  avg # of iterations =  2.4

     total cpu time spent up to now is        5.3 secs

     total energy              =    -352.82325719 Ry
     estimated scf accuracy    <       0.00280567 Ry

     total magnetization       =     1.13 Bohr mag/cell
     absolute magnetization    =     1.32 Bohr mag/cell

     iteration #  7     ecut=    40.00 Ry     beta= 0.70
     Davidson diagonalization with overlap

---- Real-time Memory Report at c_bands before calling an iterative solver
            61 MiB given to the printing process from OS
             0 MiB allocation reported by mallinfo(arena+hblkhd)
          1266 MiB available memory on the node where the printing process lives
------------------
     ethr =  5.29E-06,  avg # of iterations =  3.0

     total cpu time spent up to now is        5.8 secs

     total energy              =    -352.81883243 Ry
     estimated scf accuracy    <       0.00152942 Ry

     total magnetization       =     1.99 Bohr mag/cell
     absolute magnetization    =     2.12 Bohr mag/cell

     iteration #  8     ecut=    40.00 Ry     beta= 0.70
     Davidson diagonalization with overlap

---- Real-time Memory Report at c_bands before calling an iterative solver
            61 MiB given to the printing process from OS
             0 MiB allocation reported by mallinfo(arena+hblkhd)
          1284 MiB available memory on the node where the printing process lives
------------------
     ethr =  5.29E-06,  avg # of iterations =  3.5

     total cpu time spent up to now is        6.3 secs

     total energy              =    -352.81516630 Ry
     estimated scf accuracy    <       0.00434566 Ry

     total magnetization       =     2.59 Bohr mag/cell
     absolute magnetization    =     2.69 Bohr mag/cell

     iteration #  9     ecut=    40.00 Ry     beta= 0.70
     Davidson diagonalization with overlap

---- Real-time Memory Report at c_bands before calling an iterative solver
            61 MiB given to the printing process from OS
             0 MiB allocation reported by mallinfo(arena+hblkhd)
          1295 MiB available memory on the node where the printing process lives
------------------
     ethr =  5.29E-06,  avg # of iterations =  4.2

     total cpu time spent up to now is        6.8 secs

     total energy              =    -352.83374861 Ry
     estimated scf accuracy    <       0.00196093 Ry

     total magnetization       =     1.37 Bohr mag/cell
     absolute magnetization    =     1.54 Bohr mag/cell

     iteration # 10     ecut=    40.00 Ry     beta= 0.70
     Davidson diagonalization with overlap

---- Real-time Memory Report at c_bands before calling an iterative solver
            61 MiB given to the printing process from OS
             0 MiB allocation reported by mallinfo(arena+hblkhd)
          1307 MiB available memory on the node where the printing process lives
------------------
     ethr =  5.29E-06,  avg # of iterations =  3.9

     total cpu time spent up to now is        7.4 secs

     total energy              =    -352.84986244 Ry
     estimated scf accuracy    <       0.00263821 Ry

     total magnetization       =     0.52 Bohr mag/cell
     absolute magnetization    =     0.65 Bohr mag/cell

     iteration # 11     ecut=    40.00 Ry     beta= 0.70
     Davidson diagonalization with overlap

---- Real-time Memory Report at c_bands before calling an iterative solver
            61 MiB given to the printing process from OS
             0 MiB allocation reported by mallinfo(arena+hblkhd)
          1307 MiB available memory on the node where the printing process lives
------------------
     ethr =  5.29E-06,  avg # of iterations =  1.0

     total cpu time spent up to now is        7.8 secs

     total energy              =    -352.84828444 Ry
     estimated scf accuracy    <       0.00256602 Ry

     total magnetization       =     0.49 Bohr mag/cell
     absolute magnetization    =     0.62 Bohr mag/cell

     iteration # 12     ecut=    40.00 Ry     beta= 0.70
     Davidson diagonalization with overlap

---- Real-time Memory Report at c_bands before calling an iterative solver
            61 MiB given to the printing process from OS
             0 MiB allocation reported by mallinfo(arena+hblkhd)
          1295 MiB available memory on the node where the printing process lives
------------------
     ethr =  5.29E-06,  avg # of iterations =  1.0

     total cpu time spent up to now is        8.2 secs

     total energy              =    -352.84950346 Ry
     estimated scf accuracy    <       0.00321296 Ry

     total magnetization       =     0.57 Bohr mag/cell
     absolute magnetization    =     0.72 Bohr mag/cell

     iteration # 13     ecut=    40.00 Ry     beta= 0.70
     Davidson diagonalization with overlap

---- Real-time Memory Report at c_bands before calling an iterative solver
            61 MiB given to the printing process from OS
             0 MiB allocation reported by mallinfo(arena+hblkhd)
          1272 MiB available memory on the node where the printing process lives
------------------
     ethr =  5.29E-06,  avg # of iterations =  2.4

     total cpu time spent up to now is        8.7 secs

     total energy              =    -352.85150090 Ry
     estimated scf accuracy    <       0.00095846 Ry

     total magnetization       =     0.38 Bohr mag/cell
     absolute magnetization    =     0.45 Bohr mag/cell

     iteration # 14     ecut=    40.00 Ry     beta= 0.70
     Davidson diagonalization with overlap

---- Real-time Memory Report at c_bands before calling an iterative solver
            61 MiB given to the printing process from OS
             0 MiB allocation reported by mallinfo(arena+hblkhd)
          1280 MiB available memory on the node where the printing process lives
------------------
     ethr =  4.56E-06,  avg # of iterations =  1.0

     total cpu time spent up to now is        9.1 secs

     total energy              =    -352.85174232 Ry
     estimated scf accuracy    <       0.00118952 Ry

     total magnetization       =     0.41 Bohr mag/cell
     absolute magnetization    =     0.49 Bohr mag/cell

     iteration # 15     ecut=    40.00 Ry     beta= 0.70
     Davidson diagonalization with overlap

---- Real-time Memory Report at c_bands before calling an iterative solver
            61 MiB given to the printing process from OS
             0 MiB allocation reported by mallinfo(arena+hblkhd)
          1274 MiB available memory on the node where the printing process lives
------------------
     ethr =  4.56E-06,  avg # of iterations =  1.0

     total cpu time spent up to now is        9.5 secs

     total energy              =    -352.85174631 Ry
     estimated scf accuracy    <       0.00093485 Ry

     total magnetization       =     0.38 Bohr mag/cell
     absolute magnetization    =     0.44 Bohr mag/cell

     iteration # 16     ecut=    40.00 Ry     beta= 0.70
     Davidson diagonalization with overlap

---- Real-time Memory Report at c_bands before calling an iterative solver
            61 MiB given to the printing process from OS
             0 MiB allocation reported by mallinfo(arena+hblkhd)
          1258 MiB available memory on the node where the printing process lives
------------------
     ethr =  4.45E-06,  avg # of iterations =  1.3

     total cpu time spent up to now is        9.9 secs

     total energy              =    -352.85157991 Ry
     estimated scf accuracy    <       0.00058450 Ry

     total magnetization       =     0.32 Bohr mag/cell
     absolute magnetization    =     0.36 Bohr mag/cell

     iteration # 17     ecut=    40.00 Ry     beta= 0.70
     Davidson diagonalization with overlap

---- Real-time Memory Report at c_bands before calling an iterative solver
            61 MiB given to the printing process from OS
             0 MiB allocation reported by mallinfo(arena+hblkhd)
          1271 MiB available memory on the node where the printing process lives
------------------
     ethr =  2.78E-06,  avg # of iterations =  1.5

     total cpu time spent up to now is       10.3 secs

     total energy              =    -352.84771725 Ry
     estimated scf accuracy    <       0.00080811 Ry

     total magnetization       =     0.22 Bohr mag/cell
     absolute magnetization    =     0.26 Bohr mag/cell

     iteration # 18     ecut=    40.00 Ry     beta= 0.70
     Davidson diagonalization with overlap

---- Real-time Memory Report at c_bands before calling an iterative solver
            61 MiB given to the printing process from OS
             0 MiB allocation reported by mallinfo(arena+hblkhd)
          1263 MiB available memory on the node where the printing process lives
------------------
     ethr =  2.78E-06,  avg # of iterations =  2.7

     total cpu time spent up to now is       10.8 secs

     total energy              =    -352.85091886 Ry
     estimated scf accuracy    <       0.00114674 Ry

     total magnetization       =     0.46 Bohr mag/cell
     absolute magnetization    =     0.53 Bohr mag/cell

     iteration # 19     ecut=    40.00 Ry     beta= 0.70
     Davidson diagonalization with overlap

---- Real-time Memory Report at c_bands before calling an iterative solver
            61 MiB given to the printing process from OS
             0 MiB allocation reported by mallinfo(arena+hblkhd)
          1275 MiB available memory on the node where the printing process lives
------------------
     ethr =  2.78E-06,  avg # of iterations =  2.6

     total cpu time spent up to now is       11.3 secs

     total energy              =    -352.85166686 Ry
     estimated scf accuracy    <       0.00001123 Ry

     total magnetization       =     0.34 Bohr mag/cell
     absolute magnetization    =     0.36 Bohr mag/cell

     iteration # 20     ecut=    40.00 Ry     beta= 0.70
     Davidson diagonalization with overlap

---- Real-time Memory Report at c_bands before calling an iterative solver
            61 MiB given to the printing process from OS
             0 MiB allocation reported by mallinfo(arena+hblkhd)
          1259 MiB available memory on the node where the printing process lives
------------------
     ethr =  5.35E-08,  avg # of iterations =  4.5

     total cpu time spent up to now is       11.9 secs

     total energy              =    -352.85185401 Ry
     estimated scf accuracy    <       0.00004811 Ry

     total magnetization       =     0.26 Bohr mag/cell
     absolute magnetization    =     0.28 Bohr mag/cell

     iteration # 21     ecut=    40.00 Ry     beta= 0.70
     Davidson diagonalization with overlap

---- Real-time Memory Report at c_bands before calling an iterative solver
            61 MiB given to the printing process from OS
             0 MiB allocation reported by mallinfo(arena+hblkhd)
          1274 MiB available memory on the node where the printing process lives
------------------
     ethr =  5.35E-08,  avg # of iterations =  1.0

     total cpu time spent up to now is       12.3 secs

     total energy              =    -352.85184972 Ry
     estimated scf accuracy    <       0.00003763 Ry

     total magnetization       =     0.27 Bohr mag/cell
     absolute magnetization    =     0.28 Bohr mag/cell

     iteration # 22     ecut=    40.00 Ry     beta= 0.70
     Davidson diagonalization with overlap

---- Real-time Memory Report at c_bands before calling an iterative solver
            61 MiB given to the printing process from OS
             0 MiB allocation reported by mallinfo(arena+hblkhd)
          1274 MiB available memory on the node where the printing process lives
------------------
     ethr =  5.35E-08,  avg # of iterations =  3.3

     total cpu time spent up to now is       12.8 secs

     total energy              =    -352.85191504 Ry
     estimated scf accuracy    <       0.00000559 Ry

     total magnetization       =     0.32 Bohr mag/cell
     absolute magnetization    =     0.34 Bohr mag/cell

     iteration # 23     ecut=    40.00 Ry     beta= 0.70
     Davidson diagonalization with overlap

---- Real-time Memory Report at c_bands before calling an iterative solver
            61 MiB given to the printing process from OS
             0 MiB allocation reported by mallinfo(arena+hblkhd)
          1275 MiB available memory on the node where the printing process lives
------------------
     ethr =  2.66E-08,  avg # of iterations =  1.1

     total cpu time spent up to now is       13.3 secs

     total energy              =    -352.85191717 Ry
     estimated scf accuracy    <       0.00000504 Ry

     total magnetization       =     0.32 Bohr mag/cell
     absolute magnetization    =     0.34 Bohr mag/cell

     iteration # 24     ecut=    40.00 Ry     beta= 0.70
     Davidson diagonalization with overlap

---- Real-time Memory Report at c_bands before calling an iterative solver
            61 MiB given to the printing process from OS
             0 MiB allocation reported by mallinfo(arena+hblkhd)
          1260 MiB available memory on the node where the printing process lives
------------------
     ethr =  2.40E-08,  avg # of iterations =  1.0

     total cpu time spent up to now is       13.7 secs

     total energy              =    -352.85191851 Ry
     estimated scf accuracy    <       0.00000356 Ry

     total magnetization       =     0.32 Bohr mag/cell
     absolute magnetization    =     0.34 Bohr mag/cell

     iteration # 25     ecut=    40.00 Ry     beta= 0.70
     Davidson diagonalization with overlap

---- Real-time Memory Report at c_bands before calling an iterative solver
            61 MiB given to the printing process from OS
             0 MiB allocation reported by mallinfo(arena+hblkhd)
          1315 MiB available memory on the node where the printing process lives
------------------
     ethr =  1.69E-08,  avg # of iterations =  1.0

     total cpu time spent up to now is       14.1 secs

     total energy              =    -352.85191872 Ry
     estimated scf accuracy    <       0.00000316 Ry

     total magnetization       =     0.33 Bohr mag/cell
     absolute magnetization    =     0.34 Bohr mag/cell

     iteration # 26     ecut=    40.00 Ry     beta= 0.70
     Davidson diagonalization with overlap

---- Real-time Memory Report at c_bands before calling an iterative solver
            61 MiB given to the printing process from OS
             0 MiB allocation reported by mallinfo(arena+hblkhd)
          1277 MiB available memory on the node where the printing process lives
------------------
     ethr =  1.50E-08,  avg # of iterations =  1.0

     total cpu time spent up to now is       14.6 secs

     total energy              =    -352.85191888 Ry
     estimated scf accuracy    <       0.00000326 Ry

     total magnetization       =     0.33 Bohr mag/cell
     absolute magnetization    =     0.34 Bohr mag/cell

     iteration # 27     ecut=    40.00 Ry     beta= 0.70
     Davidson diagonalization with overlap

---- Real-time Memory Report at c_bands before calling an iterative solver
            61 MiB given to the printing process from OS
             0 MiB allocation reported by mallinfo(arena+hblkhd)
          1276 MiB available memory on the node where the printing process lives
------------------
     ethr =  1.50E-08,  avg # of iterations =  2.4

     total cpu time spent up to now is       15.1 secs

     total energy              =    -352.85191623 Ry
     estimated scf accuracy    <       0.00000111 Ry

     total magnetization       =     0.34 Bohr mag/cell
     absolute magnetization    =     0.36 Bohr mag/cell

     iteration # 28     ecut=    40.00 Ry     beta= 0.70
     Davidson diagonalization with overlap

---- Real-time Memory Report at c_bands before calling an iterative solver
            61 MiB given to the printing process from OS
             0 MiB allocation reported by mallinfo(arena+hblkhd)
          1271 MiB available memory on the node where the printing process lives
------------------
     ethr =  5.28E-09,  avg # of iterations =  4.2

     total cpu time spent up to now is       15.6 secs

     total energy              =    -352.85192304 Ry
     estimated scf accuracy    <       0.00000021 Ry

     total magnetization       =     0.36 Bohr mag/cell
     absolute magnetization    =     0.38 Bohr mag/cell

     iteration # 29     ecut=    40.00 Ry     beta= 0.70
     Davidson diagonalization with overlap

---- Real-time Memory Report at c_bands before calling an iterative solver
            61 MiB given to the printing process from OS
             0 MiB allocation reported by mallinfo(arena+hblkhd)
          1280 MiB available memory on the node where the printing process lives
------------------
     ethr =  1.01E-09,  avg # of iterations =  4.3

     total cpu time spent up to now is       16.2 secs

     total energy              =    -352.85192645 Ry
     estimated scf accuracy    <       0.00000023 Ry

     total magnetization       =     0.35 Bohr mag/cell
     absolute magnetization    =     0.37 Bohr mag/cell

     iteration # 30     ecut=    40.00 Ry     beta= 0.70
     Davidson diagonalization with overlap

---- Real-time Memory Report at c_bands before calling an iterative solver
            61 MiB given to the printing process from OS
             0 MiB allocation reported by mallinfo(arena+hblkhd)
          1261 MiB available memory on the node where the printing process lives
------------------
     ethr =  1.01E-09,  avg # of iterations =  3.8

     total cpu time spent up to now is       16.8 secs

     total energy              =    -352.85192812 Ry
     estimated scf accuracy    <       0.00000003 Ry

     total magnetization       =     0.35 Bohr mag/cell
     absolute magnetization    =     0.37 Bohr mag/cell

     iteration # 31     ecut=    40.00 Ry     beta= 0.70
     Davidson diagonalization with overlap

---- Real-time Memory Report at c_bands before calling an iterative solver
            61 MiB given to the printing process from OS
             0 MiB allocation reported by mallinfo(arena+hblkhd)
          1266 MiB available memory on the node where the printing process lives
------------------
     ethr =  1.45E-10,  avg # of iterations =  4.0

     total cpu time spent up to now is       17.3 secs

     total energy              =    -352.85192852 Ry
     estimated scf accuracy    <       0.00000003 Ry

     total magnetization       =     0.35 Bohr mag/cell
     absolute magnetization    =     0.37 Bohr mag/cell

     iteration # 32     ecut=    40.00 Ry     beta= 0.70
     Davidson diagonalization with overlap

---- Real-time Memory Report at c_bands before calling an iterative solver
            61 MiB given to the printing process from OS
             0 MiB allocation reported by mallinfo(arena+hblkhd)
          1261 MiB available memory on the node where the printing process lives
------------------
     ethr =  1.45E-10,  avg # of iterations =  3.6

     total cpu time spent up to now is       17.8 secs

     total energy              =    -352.85192871 Ry
     estimated scf accuracy    <          4.2E-10 Ry

     total magnetization       =     0.35 Bohr mag/cell
     absolute magnetization    =     0.37 Bohr mag/cell

     iteration # 33     ecut=    40.00 Ry     beta= 0.70
     Davidson diagonalization with overlap

---- Real-time Memory Report at c_bands before calling an iterative solver
            61 MiB given to the printing process from OS
             0 MiB allocation reported by mallinfo(arena+hblkhd)
          1274 MiB available memory on the node where the printing process lives
------------------
     ethr =  2.02E-12,  avg # of iterations =  3.8

     Magnetic moment per site  (integrated on atomic sphere of radius R)
     atom   1 (R=0.253)  charge= 12.6256  magn=  0.2978
     atom   2 (R=0.253)  charge=  3.4387  magn= -0.0021

     total cpu time spent up to now is       18.4 secs

     End of self-consistent calculation

 ------ SPIN UP ------------


          k = 0.0000 0.0000 0.0000 (   869 PWs)   bands (ev):

   -67.2563 -36.0644 -36.0644 -36.0643  -3.5500   7.0314   7.0314   7.0314
    10.8174  10.8174  15.5269  15.5269  15.5269  15.6528  19.6397

     occupation numbers 
     1.0000   1.0000   1.0000   1.0000   1.0000   1.0000   1.0000   1.0000
     1.0000   1.0000   0.0000   0.0000   0.0000   0.0000   0.0000

          k = 0.1179 0.1179-0.1179 (   881 PWs)   bands (ev):

   -67.2558 -36.0711 -36.0655 -36.0655  -3.2647   6.5198   7.1232   7.1232
    10.7677  10.7677  14.0478  15.1387  15.1387  16.8048  19.6485

     occupation numbers 
     1.0000   1.0000   1.0000   1.0000   1.0000   1.0000   1.0000   1.0000
     1.0000   1.0000   0.0000   0.0000   0.0000   0.0000   0.0000

          k = 0.2357 0.2357-0.2357 (   854 PWs)   bands (ev):

   -67.2549 -36.0845 -36.0675 -36.0675  -2.6159   5.5806   7.2698   7.2698
    10.8810  10.8810  12.2000  14.2729  14.2730  17.4485  20.4618

     occupation numbers 
     1.0000   1.0000   1.0000   1.0000   1.0000   1.0000   1.0000   1.0000
     1.0000   1.0000   0.0000   0.0000   0.0000   0.0000   0.0000

          k =-0.3536-0.3536 0.3536 (   862 PWs)   bands (ev):

   -67.2545 -36.0914 -36.0686 -36.0686  -2.2374   5.1106   7.3181   7.3181
    11.1032  11.1033  11.4162  13.7128  13.7129  17.3260  20.3424

     occupation numbers 
     1.0000   1.0000   1.0000   1.0000   1.0000   1.0000   1.0000   1.0000
     1.0000   1.0000   1.0000   0.0000   0.0000   0.0000   0.0000

          k = 0.2357 0.0000 0.0000 (   877 PWs)   bands (ev):

   -67.2557 -36.0712 -36.0670 -36.0670  -3.1696   6.4192   7.1500   7.1500
    10.4767  10.9750  14.4459  14.4459  14.7194  16.9909  18.9989

     occupation numbers 
     1.0000   1.0000   1.0000   1.0000   1.0000   1.0000   1.0000   1.0000
     1.0000   1.0000   0.0000   0.0000   0.0000   0.0000   0.0000

          k = 0.3536 0.1179-0.1179 (   863 PWs)   bands (ev):

   -67.2549 -36.0810 -36.0693 -36.0692  -2.6371   5.7934   7.1923   7.3042
    10.3859  11.1160  12.6118  13.6273  14.2143  17.8524  19.5257

     occupation numbers 
     1.0000   1.0000   1.0000   1.0000   1.0000   1.0000   1.0000   1.0000
     1.0000   1.0000   0.0000   0.0000   0.0000   0.0000   0.0000

          k =-0.2357-0.4714 0.4714 (   866 PWs)   bands (ev):

   -67.2543 -36.0890 -36.0724 -36.0700  -2.1432   5.3933   7.0024   7.4096
    10.6986  11.1412  11.3761  13.3144  13.3817  18.0327  19.8358

     occupation numbers 
     1.0000   1.0000   1.0000   1.0000   1.0000   1.0000   1.0000   1.0000
     1.0000   1.0000   1.0000   0.0000   0.0000   0.0000   0.0000

          k =-0.1179-0.3536 0.3536 (   867 PWs)   bands (ev):

   -67.2545 -36.0869 -36.0731 -36.0686  -2.2701   5.5604   6.8980   7.4058
    10.7385  11.0225  11.6610  13.0347  14.0532  18.3128  19.8419

     occupation numbers 
     1.0000   1.0000   1.0000   1.0000   1.0000   1.0000   1.0000   1.0000
     1.0000   1.0000   0.9527   0.0000   0.0000   0.0000   0.0000

          k = 0.0000-0.2357 0.2357 (   857 PWs)   bands (ev):

   -67.2552 -36.0777 -36.0697 -36.0663  -2.8533   6.0630   7.0458   7.2709
    10.5655  10.9745  13.1324  13.5965  14.9864  18.2129  19.7067

     occupation numbers 
     1.0000   1.0000   1.0000   1.0000   1.0000   1.0000   1.0000   1.0000
     1.0000   1.0000   0.0000   0.0000   0.0000   0.0000   0.0000

          k = 0.4714 0.0000 0.0000 (   866 PWs)   bands (ev):

   -67.2545 -36.0845 -36.0720 -36.0720  -2.3050   5.4373   7.4832   7.4832
     9.9768  11.3071  12.7833  12.7833  12.9374  17.0498  19.0243

     occupation numbers 
     1.0000   1.0000   1.0000   1.0000   1.0000   1.0000   1.0000   1.0000
     1.0000   1.0000   0.0000   0.0000   0.0000   0.0000   0.0000

          k =-0.1179-0.5893 0.5893 (   853 PWs)   bands (ev):

   -67.2540 -36.0883 -36.0759 -36.0728  -1.9268   5.3271   7.2333   7.6129
    10.0744  11.2867  11.3421  12.5160  12.7202  17.6646  19.3828

     occupation numbers 
     1.0000   1.0000   1.0000   1.0000   1.0000   1.0000   1.0000   1.0000
     1.0000   1.0000   1.0000   0.0000   0.0000   0.0000   0.0000

          k =-0.0000-0.4714 0.4714 (   866 PWs)   bands (ev):

   -67.2540 -36.0857 -36.0803 -36.0713  -1.9155   5.9055   6.3360   7.5694
    10.2257  10.9074  11.5797  12.4527  13.2005  18.0374  20.8032

     occupation numbers 
     1.0000   1.0000   1.0000   1.0000   1.0000   1.0000   1.0000   1.0000
     1.0000   1.0000   0.9941   0.0000   0.0000   0.0000   0.0000

          k =-0.7071 0.0000 0.0000 (   846 PWs)   bands (ev):

   -67.2538 -36.0910 -36.0744 -36.0744  -1.8015   5.0155   7.7272   7.7273
    10.0038  11.4585  11.4840  12.0073  12.0073  17.3414  18.5626

     occupation numbers 
     1.0000   1.0000   1.0000   1.0000   1.0000   1.0000   1.0000   1.0000
     1.0000   0.9999   0.9998   0.0269   0.0269   0.0000   0.0000

          k =-0.2357-0.4714 0.7071 (   857 PWs)   bands (ev):

   -67.2543 -36.0853 -36.0752 -36.0707  -2.1695   5.6292   6.8969   7.4892
    10.3795  11.0621  11.7292  12.6154  13.6569  18.6518  19.6253

     occupation numbers 
     1.0000   1.0000   1.0000   1.0000   1.0000   1.0000   1.0000   1.0000
     1.0000   1.0000   0.8320   0.0000   0.0000   0.0000   0.0000

          k =-0.1179-0.3536 0.5893 (   866 PWs)   bands (ev):

   -67.2540 -36.0867 -36.0783 -36.0723  -1.9154   5.7960   6.4933   7.5471
    10.2568  10.8515  11.4594  12.5346  13.1885  18.7487  19.9548

     occupation numbers 
     1.0000   1.0000   1.0000   1.0000   1.0000   1.0000   1.0000   1.0000
     1.0000   1.0000   0.9999   0.0000   0.0000   0.0000   0.0000

          k =-0.7071 0.2357 0.0000 (   870 PWs)   bands (ev):

   -67.2539 -36.0877 -36.0780 -36.0745  -1.7991   5.5215   6.9319   7.6285
     9.9290  10.8246  11.4880  12.1962  12.8655  18.2995  19.8518

     occupation numbers 
     1.0000   1.0000   1.0000   1.0000   1.0000   1.0000   1.0000   1.0000
     1.0000   1.0000   0.9997   0.0000   0.0000   0.0000   0.0000

 ------ SPIN DOWN ----------


          k = 0.0000 0.0000 0.0000 (   869 PWs)   bands (ev):

   -66.9192 -35.7342 -35.7342 -35.7341  -3.5344   7.1056   7.1056   7.1057
    11.2348  11.2348  15.6401  15.6401  15.6401  15.7027  19.7204

     occupation numbers 
     1.0000   1.0000   1.0000   1.0000   1.0000   1.0000   1.0000   1.0000
     1.0000   1.0000   0.0000   0.0000   0.0000   0.0000   0.0000

          k = 0.1179 0.1179-0.1179 (   881 PWs)   bands (ev):

   -66.9188 -35.7411 -35.7353 -35.7353  -3.2502   6.5825   7.1982   7.1982
    11.1694  11.1694  14.1845  15.2736  15.2736  16.8596  19.7022

     occupation numbers 
     1.0000   1.0000   1.0000   1.0000   1.0000   1.0000   1.0000   1.0000
     1.0000   1.0000   0.0000   0.0000   0.0000   0.0000   0.0000

          k = 0.2357 0.2357-0.2357 (   854 PWs)   bands (ev):

   -66.9178 -35.7548 -35.7373 -35.7373  -2.6043   5.6250   7.3510   7.3510
    11.2607  11.2607  12.3636  14.4235  14.4235  17.5067  20.5645

     occupation numbers 
     1.0000   1.0000   1.0000   1.0000   1.0000   1.0000   1.0000   1.0000
     1.0000   1.0000   0.0000   0.0000   0.0000   0.0000   0.0000

          k =-0.3536-0.3536 0.3536 (   862 PWs)   bands (ev):

   -66.9174 -35.7618 -35.7385 -35.7385  -2.2277   5.1472   7.4051   7.4051
    11.4832  11.4832  11.5902  13.8541  13.8542  17.3755  20.4569

     occupation numbers 
     1.0000   1.0000   1.0000   1.0000   1.0000   1.0000   1.0000   1.0000
     0.9998   0.9998   0.9920   0.0000   0.0000   0.0000   0.0000

          k = 0.2357 0.0000 0.0000 (   877 PWs)   bands (ev):

   -66.9186 -35.7411 -35.7368 -35.7368  -3.1555   6.4883   7.2191   7.2191
    10.8408  11.4019  14.5747  14.5747  14.8953  17.0431  19.0793

     occupation numbers 
     1.0000   1.0000   1.0000   1.0000   1.0000   1.0000   1.0000   1.0000
     1.0000   1.0000   0.0000   0.0000   0.0000   0.0000   0.0000

          k = 0.3536 0.1179-0.1179 (   863 PWs)   bands (ev):

   -66.9179 -35.7513 -35.7393 -35.7391  -2.6253   5.8503   7.2631   7.3728
    10.7061  11.5368  12.7651  13.7707  14.4254  17.9266  19.5940

     occupation numbers 
     1.0000   1.0000   1.0000   1.0000   1.0000   1.0000   1.0000   1.0000
     1.0000   0.9985   0.0000   0.0000   0.0000   0.0000   0.0000

          k =-0.2357-0.4714 0.4714 (   866 PWs)   bands (ev):

   -66.9172 -35.7594 -35.7424 -35.7400  -2.1340   5.4352   7.0790   7.4876
    10.9528  11.5183  11.6042  13.4895  13.6012  18.1094  19.9120

     occupation numbers 
     1.0000   1.0000   1.0000   1.0000   1.0000   1.0000   1.0000   1.0000
     1.0000   0.9992   0.9881   0.0000   0.0000   0.0000   0.0000

          k =-0.1179-0.3536 0.3536 (   867 PWs)   bands (ev):

   -66.9174 -35.7572 -35.7431 -35.7385  -2.2602   5.6029   6.9704   7.4889
    11.0789  11.2996  11.9220  13.2085  14.2558  18.3767  19.9334

     occupation numbers 
     1.0000   1.0000   1.0000   1.0000   1.0000   1.0000   1.0000   1.0000
     1.0000   1.0000   0.1489   0.0000   0.0000   0.0000   0.0000

          k = 0.0000-0.2357 0.2357 (   857 PWs)   bands (ev):

   -66.9181 -35.7478 -35.7396 -35.7361  -2.8406   6.1187   7.1135   7.3506
    10.9272  11.3763  13.2676  13.7618  15.1633  18.2702  19.7654

     occupation numbers 
     1.0000   1.0000   1.0000   1.0000   1.0000   1.0000   1.0000   1.0000
     1.0000   1.0000   0.0000   0.0000   0.0000   0.0000   0.0000

          k = 0.4714 0.0000 0.0000 (   866 PWs)   bands (ev):

   -66.9174 -35.7548 -35.7420 -35.7419  -2.2948   5.5037   7.5377   7.5377
    10.2288  11.7556  12.9338  12.9338  13.1917  17.1402  19.1639

     occupation numbers 
     1.0000   1.0000   1.0000   1.0000   1.0000   1.0000   1.0000   1.0000
     1.0000   0.7544   0.0000   0.0000   0.0000   0.0000   0.0000

          k =-0.1179-0.5893 0.5893 (   853 PWs)   bands (ev):

   -66.9169 -35.7587 -35.7459 -35.7428  -1.9186   5.3915   7.2786   7.6688
    10.2497  11.5797  11.6693  12.7352  12.9866  17.7750  19.4917

     occupation numbers 
     1.0000   1.0000   1.0000   1.0000   1.0000   1.0000   1.0000   1.0000
     1.0000   0.9941   0.9435   0.0000   0.0000   0.0000   0.0000

          k =-0.0000-0.4714 0.4714 (   866 PWs)   bands (ev):

   -66.9169 -35.7561 -35.7504 -35.7412  -1.9074   5.9688   6.3773   7.6413
    10.3925  11.2338  11.8643  12.7139  13.4509  18.1501  20.8641

     occupation numbers 
     1.0000   1.0000   1.0000   1.0000   1.0000   1.0000   1.0000   1.0000
     1.0000   1.0000   0.3292   0.0000   0.0000   0.0000   0.0000

          k =-0.7071 0.0000 0.0000 (   846 PWs)   bands (ev):

   -66.9167 -35.7615 -35.7444 -35.7444  -1.7940   5.0832   7.7693   7.7693
    10.1352  11.8033  11.9448  12.1714  12.1715  17.4613  18.7165

     occupation numbers 
     1.0000   1.0000   1.0000   1.0000   1.0000   1.0000   1.0000   1.0000
     1.0000   0.5762   0.1005   0.0001   0.0001   0.0000   0.0000

          k =-0.2357-0.4714 0.7071 (   857 PWs)   bands (ev):

   -66.9172 -35.7556 -35.7453 -35.7407  -2.1600   5.6853   6.9587   7.5542
    10.6406  11.3332  12.0512  12.7884  13.9120  18.7307  19.6954

     occupation numbers 
     1.0000   1.0000   1.0000   1.0000   1.0000   1.0000   1.0000   1.0000
     1.0000   1.0000   0.0085   0.0000   0.0000   0.0000   0.0000

          k =-0.1179-0.3536 0.5893 (   866 PWs)   bands (ev):

   -66.9169 -35.7571 -35.7484 -35.7423  -1.9073   5.8468   6.5574   7.6064
    10.4260  11.1173  11.8132  12.7648  13.4728  18.8278  20.0308

     occupation numbers 
     1.0000   1.0000   1.0000   1.0000   1.0000   1.0000   1.0000   1.0000
     1.0000   1.0000   0.5356   0.0000   0.0000   0.0000   0.0000

          k =-0.7071 0.2357 0.0000 (   870 PWs)   bands (ev):

   -66.9168 -35.7581 -35.7481 -35.7446  -1.7916   5.5877   6.9849   7.6634
    10.0713  11.0676  11.9210  12.3755  13.1867  18.3874  19.9531

     occupation numbers 
     1.0000   1.0000   1.0000   1.0000   1.0000   1.0000   1.0000   1.0000
     1.0000   1.0000   0.1512   0.0000   0.0000   0.0000   0.0000

     the Fermi energy is    11.8218 ev

!    total energy              =    -352.85192871 Ry
     total all-electron energy =     -3115.710332 Ry
     estimated scf accuracy    <          3.1E-12 Ry
     smearing contrib. (-TS)   =      -0.00129514 Ry
     internal energy E=F+TS    =    -352.85063357 Ry

     The total energy is F=E-TS. E is the sum of the following terms:
     one-electron contribution =    -127.92631161 Ry
     hartree contribution      =      76.00710735 Ry
     xc contribution           =     -33.13319875 Ry
     ewald contribution        =    -143.94519114 Ry
     one-center paw contrib.   =    -123.85303942 Ry
      -> PAW hartree energy AE =     171.18660308 Ry
      -> PAW hartree energy PS =    -172.24394333 Ry
      -> PAW xc energy AE      =    -103.94825933 Ry
      -> PAW xc energy PS      =      27.28480665 Ry
      -> total E_H with PAW    =      74.94976710 Ry
      -> total E_XC with PAW   =    -109.79665143 Ry

     total magnetization       =     0.35 Bohr mag/cell
     absolute magnetization    =     0.37 Bohr mag/cell

     convergence has been achieved in  33 iterations

     Writing all to output data dir ./temp/mns.save/ :
     XML data file, charge density, pseudopotentials, collected wavefunctions

     init_run     :      0.79s CPU      1.11s WALL (       1 calls)
     electrons    :     15.62s CPU     16.71s WALL (       1 calls)

     Called by init_run:
     wfcinit      :      0.11s CPU      0.19s WALL (       1 calls)
     wfcinit:atom :      0.00s CPU      0.00s WALL (      32 calls)
     wfcinit:wfcr :      0.11s CPU      0.18s WALL (      32 calls)
     potinit      :      0.32s CPU      0.39s WALL (       1 calls)
     hinit0       :      0.32s CPU      0.42s WALL (       1 calls)

     Called by electrons:
     c_bands      :      7.95s CPU      8.19s WALL (      34 calls)
     sum_band     :      2.21s CPU      2.24s WALL (      34 calls)
     v_of_rho     :      0.16s CPU      0.17s WALL (      34 calls)
     v_h          :      0.00s CPU      0.00s WALL (      34 calls)
     v_xc         :      0.16s CPU      0.17s WALL (      34 calls)
     newd         :      0.54s CPU      0.54s WALL (      34 calls)
     PAW_pot      :      4.93s CPU      5.76s WALL (      34 calls)
     mix_rho      :      0.04s CPU      0.05s WALL (      34 calls)

     Called by c_bands:
     init_us_2    :      0.13s CPU      0.14s WALL (    2208 calls)
     cegterg      :      7.68s CPU      7.91s WALL (    1088 calls)

     Called by sum_band:
     sum_band:wei :      0.01s CPU      0.01s WALL (      34 calls)
     sum_band:loo :      1.10s CPU      1.14s WALL (      34 calls)
     sum_band:buf :      0.02s CPU      0.02s WALL (    1088 calls)
     sum_band:ini :      0.06s CPU      0.06s WALL (    1088 calls)
     sum_band:cal :      0.19s CPU      0.20s WALL (    1088 calls)
     sum_band:bec :      0.02s CPU      0.02s WALL (    1088 calls)
     addusdens    :      1.04s CPU      1.05s WALL (      34 calls)
                                        0.00s GPU  (      34 calls)
     addusd:skk   :      0.00s CPU      0.00s WALL (      68 calls)
                                        0.00s GPU  (      68 calls)

     Called by *egterg:
     cdiaghg      :      0.91s CPU      0.99s WALL (    3951 calls)
     cegterg:over :      0.49s CPU      0.50s WALL (    2895 calls)
     cegterg:upda :      0.22s CPU      0.22s WALL (    2895 calls)
     cegterg:last :      0.44s CPU      0.44s WALL (    1977 calls)
     h_psi        :      4.96s CPU      5.09s WALL (    4015 calls)
     s_psi        :      0.45s CPU      0.46s WALL (    4015 calls)
     g_psi        :      0.01s CPU      0.01s WALL (    2895 calls)

     Called by h_psi:
     h_psi:calbec :      0.49s CPU      0.51s WALL (    4015 calls)
     vloc_psi     :      3.99s CPU      4.09s WALL (    4015 calls)
     add_vuspsi   :      0.45s CPU      0.46s WALL (    4015 calls)

     General routines
     calbec       :      0.68s CPU      0.70s WALL (    5103 calls)
     fft          :      0.17s CPU      0.25s WALL (     846 calls)
     ffts         :      0.06s CPU      0.06s WALL (     136 calls)
     fftw         :      4.43s CPU      4.54s WALL (   98274 calls)
     interpolate  :      0.07s CPU      0.07s WALL (      68 calls)

     Parallel routines

     PAW routines
     PAW_pot      :      4.93s CPU      5.76s WALL (      34 calls)
     PAW_symme    :      0.02s CPU      0.02s WALL (      68 calls)

     PWSCF        :     16.73s CPU     18.45s WALL


   This run was terminated on:  13:29:21  30Jan2025            

=------------------------------------------------------------------------------=
   JOB DONE.
=------------------------------------------------------------------------------=
