
     Program PWSCF v.7.3.1 starts on 23Dec2024 at  6:59:16 

     This program is part of the open-source Quantum ESPRESSO suite
     for quantum simulation of materials; please cite
         "P. Giannozzi et al., J. Phys.:Condens. Matter 21 395502 (2009);
         "P. Giannozzi et al., J. Phys.:Condens. Matter 29 465901 (2017);
         "P. Giannozzi et al., J. Chem. Phys. 152 154105 (2020);
          URL http://www.quantum-espresso.org", 
     in publications or presentations arising from this work. More details at
     http://www.quantum-espresso.org/quote

     Parallel version (MPI), running on     2 processors

     MPI processes distributed on     1 nodes
     3048 MiB available memory on the printing compute node when the environment starts

     Reading input from vc_relax_AFM.in

     Current dimensions of program PWSCF are:
     Max number of different atomic species (ntypx) = 10
     Max number of k-points (npk) =  40000
     Max angular momentum in pseudopotentials (lmaxx) =  4
     file Fe.pbesol-spn-kjpaw_psl.1.0.0.UPF: wavefunction(s)  3P 3D renormalized
     file Fe.pbesol-spn-kjpaw_psl.1.0.0.UPF: wavefunction(s)  3P 3D renormalized
     Found identity + ( -0.5000 -0.5000 -0.5000) symmetry
     This is a supercell, fractional translations are disabled

     R & G space division:  proc/nbgrp/npool/nimage =       2
     Subspace diagonalization in iterative solution of the eigenvalue problem:
     a serial algorithm will be used


     Parallelization info
     --------------------
     sticks:   dense  smooth     PW     G-vecs:    dense   smooth      PW
     Min         470     236     72                10683     3760     678
     Max         471     237     73                10684     3761     679
     Sum         941     473    145                21367     7521    1357

     Using Slab Decomposition



     bravais-lattice index     =            1
     lattice parameter (alat)  =       5.4104  a.u.
     unit-cell volume          =     158.3714 (a.u.)^3
     number of atoms/cell      =            2
     number of atomic types    =            2
     number of electrons       =        32.00
     number of Kohn-Sham states=           20
     kinetic-energy cutoff     =      50.0000  Ry
     charge density cutoff     =     400.0000  Ry
     scf convergence threshold =      1.0E-08
     mixing beta               =       0.7000
     number of iterations used =            8  plain     mixing
     energy convergence thresh.=      1.0E-05
     force convergence thresh. =      1.0E-04
     press convergence thresh. =      5.0E-01
     Exchange-correlation= SLA  PW   PSX  PSC
                           (   1   4  10   8   0   0   0)
     nstep                     =           50


     celldm(1)=   5.410353  celldm(2)=   0.000000  celldm(3)=   0.000000
     celldm(4)=   0.000000  celldm(5)=   0.000000  celldm(6)=   0.000000

     crystal axes: (cart. coord. in units of alat)
               a(1) = (   1.000000   0.000000   0.000000 )  
               a(2) = (   0.000000   1.000000   0.000000 )  
               a(3) = (   0.000000   0.000000   1.000000 )  

     reciprocal axes: (cart. coord. in units 2 pi/alat)
               b(1) = (  1.000000  0.000000  0.000000 )  
               b(2) = (  0.000000  1.000000  0.000000 )  
               b(3) = (  0.000000  0.000000  1.000000 )  


     PseudoPot. # 1 for Fe read from file:
     ./../../pseudos/Fe.pbesol-spn-kjpaw_psl.1.0.0.UPF
     MD5 check sum: e30d5f36a6f0cb983ee41abee56170da
     Pseudo is Projector augmented-wave + core cor, Zval = 16.0
     Generated using &quot;atomic&quot; code by A. Dal Corso  v.6.3
     Shape of augmentation charge: PSQ
     Using radial grid of 1191 points,  6 beta functions with: 
                l(1) =   0
                l(2) =   0
                l(3) =   1
                l(4) =   1
                l(5) =   2
                l(6) =   2
     Q(r) pseudized with 0 coefficients 


     PseudoPot. # 2 for Fe read from file:
     ./../../pseudos/Fe.pbesol-spn-kjpaw_psl.1.0.0.UPF
     MD5 check sum: e30d5f36a6f0cb983ee41abee56170da
     Pseudo is Projector augmented-wave + core cor, Zval = 16.0
     Generated using &quot;atomic&quot; code by A. Dal Corso  v.6.3
     Shape of augmentation charge: PSQ
     Using radial grid of 1191 points,  6 beta functions with: 
                l(1) =   0
                l(2) =   0
                l(3) =   1
                l(4) =   1
                l(5) =   2
                l(6) =   2
     Q(r) pseudized with 0 coefficients 


     atomic species   valence    mass     pseudopotential
     Fe1              16.00    55.84500     Fe( 1.00)
     Fe2              16.00    55.84500     Fe( 1.00)

     Starting magnetic structure 
     atomic species   magnetization
     Fe1             0.300
     Fe2            -0.300

     48 Sym. Ops., with inversion, found



   Cartesian axes

     site n.     atom                  positions (alat units)
         1        Fe1    tau(   1) = (   0.0000000   0.0000000   0.0000000  )
         2        Fe1    tau(   2) = (   0.5000000   0.5000000   0.5000000  )

     number of k points=    56  Gaussian smearing, width (Ry)=  0.0200
                       cart. coord. in units 2pi/alat
        k(    1) = (   0.0000000   0.0000000   0.0000000), wk =   0.0007513
        k(    2) = (   0.0000000   0.0000000   0.0909091), wk =   0.0045079
        k(    3) = (   0.0000000   0.0000000   0.1818182), wk =   0.0045079
        k(    4) = (   0.0000000   0.0000000   0.2727273), wk =   0.0045079
        k(    5) = (   0.0000000   0.0000000   0.3636364), wk =   0.0045079
        k(    6) = (   0.0000000   0.0000000   0.4545455), wk =   0.0045079
        k(    7) = (   0.0000000   0.0909091   0.0909091), wk =   0.0090158
        k(    8) = (   0.0000000   0.0909091   0.1818182), wk =   0.0180316
        k(    9) = (   0.0000000   0.0909091   0.2727273), wk =   0.0180316
        k(   10) = (   0.0000000   0.0909091   0.3636364), wk =   0.0180316
        k(   11) = (   0.0000000   0.0909091   0.4545455), wk =   0.0180316
        k(   12) = (   0.0000000   0.1818182   0.1818182), wk =   0.0090158
        k(   13) = (   0.0000000   0.1818182   0.2727273), wk =   0.0180316
        k(   14) = (   0.0000000   0.1818182   0.3636364), wk =   0.0180316
        k(   15) = (   0.0000000   0.1818182   0.4545455), wk =   0.0180316
        k(   16) = (   0.0000000   0.2727273   0.2727273), wk =   0.0090158
        k(   17) = (   0.0000000   0.2727273   0.3636364), wk =   0.0180316
        k(   18) = (   0.0000000   0.2727273   0.4545455), wk =   0.0180316
        k(   19) = (   0.0000000   0.3636364   0.3636364), wk =   0.0090158
        k(   20) = (   0.0000000   0.3636364   0.4545455), wk =   0.0180316
        k(   21) = (   0.0000000   0.4545455   0.4545455), wk =   0.0090158
        k(   22) = (   0.0909091   0.0909091   0.0909091), wk =   0.0060105
        k(   23) = (   0.0909091   0.0909091   0.1818182), wk =   0.0180316
        k(   24) = (   0.0909091   0.0909091   0.2727273), wk =   0.0180316
        k(   25) = (   0.0909091   0.0909091   0.3636364), wk =   0.0180316
        k(   26) = (   0.0909091   0.0909091   0.4545455), wk =   0.0180316
        k(   27) = (   0.0909091   0.1818182   0.1818182), wk =   0.0180316
        k(   28) = (   0.0909091   0.1818182   0.2727273), wk =   0.0360631
        k(   29) = (   0.0909091   0.1818182   0.3636364), wk =   0.0360631
        k(   30) = (   0.0909091   0.1818182   0.4545455), wk =   0.0360631
        k(   31) = (   0.0909091   0.2727273   0.2727273), wk =   0.0180316
        k(   32) = (   0.0909091   0.2727273   0.3636364), wk =   0.0360631
        k(   33) = (   0.0909091   0.2727273   0.4545455), wk =   0.0360631
        k(   34) = (   0.0909091   0.3636364   0.3636364), wk =   0.0180316
        k(   35) = (   0.0909091   0.3636364   0.4545455), wk =   0.0360631
        k(   36) = (   0.0909091   0.4545455   0.4545455), wk =   0.0180316
        k(   37) = (   0.1818182   0.1818182   0.1818182), wk =   0.0060105
        k(   38) = (   0.1818182   0.1818182   0.2727273), wk =   0.0180316
        k(   39) = (   0.1818182   0.1818182   0.3636364), wk =   0.0180316
        k(   40) = (   0.1818182   0.1818182   0.4545455), wk =   0.0180316
        k(   41) = (   0.1818182   0.2727273   0.2727273), wk =   0.0180316
        k(   42) = (   0.1818182   0.2727273   0.3636364), wk =   0.0360631
        k(   43) = (   0.1818182   0.2727273   0.4545455), wk =   0.0360631
        k(   44) = (   0.1818182   0.3636364   0.3636364), wk =   0.0180316
        k(   45) = (   0.1818182   0.3636364   0.4545455), wk =   0.0360631
        k(   46) = (   0.1818182   0.4545455   0.4545455), wk =   0.0180316
        k(   47) = (   0.2727273   0.2727273   0.2727273), wk =   0.0060105
        k(   48) = (   0.2727273   0.2727273   0.3636364), wk =   0.0180316
        k(   49) = (   0.2727273   0.2727273   0.4545455), wk =   0.0180316
        k(   50) = (   0.2727273   0.3636364   0.3636364), wk =   0.0180316
        k(   51) = (   0.2727273   0.3636364   0.4545455), wk =   0.0360631
        k(   52) = (   0.2727273   0.4545455   0.4545455), wk =   0.0180316
        k(   53) = (   0.3636364   0.3636364   0.3636364), wk =   0.0060105
        k(   54) = (   0.3636364   0.3636364   0.4545455), wk =   0.0180316
        k(   55) = (   0.3636364   0.4545455   0.4545455), wk =   0.0180316
        k(   56) = (   0.4545455   0.4545455   0.4545455), wk =   0.0060105

     Dense  grid:    21367 G-vectors     FFT dimensions: (  36,  36,  36)

     Smooth grid:     7521 G-vectors     FFT dimensions: (  25,  25,  25)

     Estimated max dynamical RAM per process >      66.47 MB

     Estimated total dynamical RAM >     132.95 MB

     Check: negative core charge=   -0.000006
     Generating pointlists ...
     new r_m :   0.3572 (alat units)  1.9328 (a.u.) for type    1
     new r_m :   0.4125 (alat units)  2.2318 (a.u.) for type    2

     Initial potential from superposition of free atoms

     starting charge      31.9992, renormalised to      32.0000
     Starting wfcs are   20 randomized atomic wfcs
     Checking if some PAW data can be deallocated... 

     total cpu time spent up to now is        5.3 secs

     Self-consistent Calculation

     iteration #  1     ecut=    50.00 Ry     beta= 0.70
     Davidson diagonalization with overlap
     ethr =  1.00E-02,  avg # of iterations =  3.4

     Threshold (ethr) on eigenvalues was too large:
     Diagonalizing with lowered threshold

     Davidson diagonalization with overlap
     ethr =  6.12E-04,  avg # of iterations =  1.6

     negative rho (up, down):  0.000E+00 2.441E-04

     total cpu time spent up to now is       16.2 secs

     total energy              =    -653.72809111 Ry
     estimated scf accuracy    <       0.20435193 Ry

     total magnetization       =     5.86 Bohr mag/cell
     absolute magnetization    =     5.91 Bohr mag/cell

     iteration #  2     ecut=    50.00 Ry     beta= 0.70
     Davidson diagonalization with overlap
     ethr =  6.39E-04,  avg # of iterations =  2.1

     negative rho (up, down):  0.000E+00 3.613E-04

     total cpu time spent up to now is       21.9 secs

     total energy              =    -653.74845186 Ry
     estimated scf accuracy    <       0.07766556 Ry

     total magnetization       =     5.34 Bohr mag/cell
     absolute magnetization    =     5.50 Bohr mag/cell

     iteration #  3     ecut=    50.00 Ry     beta= 0.70
     Davidson diagonalization with overlap
     ethr =  2.43E-04,  avg # of iterations =  3.2

     negative rho (up, down):  0.000E+00 6.204E-04

     total cpu time spent up to now is       28.8 secs

     total energy              =    -653.77002626 Ry
     estimated scf accuracy    <       0.08047549 Ry

     total magnetization       =     4.97 Bohr mag/cell
     absolute magnetization    =     5.18 Bohr mag/cell

     iteration #  4     ecut=    50.00 Ry     beta= 0.70
     Davidson diagonalization with overlap
     ethr =  2.43E-04,  avg # of iterations =  2.2

     negative rho (up, down):  0.000E+00 5.958E-04

     total cpu time spent up to now is       35.0 secs

     total energy              =    -653.78200040 Ry
     estimated scf accuracy    <       0.00792088 Ry

     total magnetization       =     4.64 Bohr mag/cell
     absolute magnetization    =     4.89 Bohr mag/cell

     iteration #  5     ecut=    50.00 Ry     beta= 0.70
     Davidson diagonalization with overlap
     ethr =  2.48E-05,  avg # of iterations =  2.4

     negative rho (up, down):  0.000E+00 3.235E-04

     total cpu time spent up to now is       41.4 secs

     total energy              =    -653.78311828 Ry
     estimated scf accuracy    <       0.01647160 Ry

     total magnetization       =     4.62 Bohr mag/cell
     absolute magnetization    =     4.87 Bohr mag/cell

     iteration #  6     ecut=    50.00 Ry     beta= 0.70
     Davidson diagonalization with overlap
     ethr =  2.48E-05,  avg # of iterations =  1.5

     negative rho (up, down):  0.000E+00 3.145E-04

     total cpu time spent up to now is       47.3 secs

     total energy              =    -653.78484204 Ry
     estimated scf accuracy    <       0.00057048 Ry

     total magnetization       =     4.46 Bohr mag/cell
     absolute magnetization    =     4.68 Bohr mag/cell

     iteration #  7     ecut=    50.00 Ry     beta= 0.70
     Davidson diagonalization with overlap
     ethr =  1.78E-06,  avg # of iterations =  2.1

     negative rho (up, down):  0.000E+00 2.988E-04

     total cpu time spent up to now is       54.0 secs

     total energy              =    -653.78498528 Ry
     estimated scf accuracy    <       0.00002249 Ry

     total magnetization       =     4.47 Bohr mag/cell
     absolute magnetization    =     4.68 Bohr mag/cell

     iteration #  8     ecut=    50.00 Ry     beta= 0.70
     Davidson diagonalization with overlap
     ethr =  7.03E-08,  avg # of iterations =  3.1

     negative rho (up, down):  0.000E+00 2.983E-04

     total cpu time spent up to now is       60.7 secs

     total energy              =    -653.78499745 Ry
     estimated scf accuracy    <       0.00001573 Ry

     total magnetization       =     4.45 Bohr mag/cell
     absolute magnetization    =     4.66 Bohr mag/cell

     iteration #  9     ecut=    50.00 Ry     beta= 0.70
     Davidson diagonalization with overlap
     ethr =  4.92E-08,  avg # of iterations =  1.7

     negative rho (up, down):  0.000E+00 2.998E-04

     total cpu time spent up to now is       66.5 secs

     total energy              =    -653.78499908 Ry
     estimated scf accuracy    <       0.00000150 Ry

     total magnetization       =     4.45 Bohr mag/cell
     absolute magnetization    =     4.66 Bohr mag/cell

     iteration # 10     ecut=    50.00 Ry     beta= 0.70
     Davidson diagonalization with overlap
     ethr =  4.70E-09,  avg # of iterations =  2.8

     negative rho (up, down):  0.000E+00 2.990E-04

     total cpu time spent up to now is       73.5 secs

     total energy              =    -653.78499967 Ry
     estimated scf accuracy    <       0.00000059 Ry

     total magnetization       =     4.45 Bohr mag/cell
     absolute magnetization    =     4.66 Bohr mag/cell

     iteration # 11     ecut=    50.00 Ry     beta= 0.70
     Davidson diagonalization with overlap
     ethr =  1.83E-09,  avg # of iterations =  1.4

     negative rho (up, down):  0.000E+00 2.983E-04

     total cpu time spent up to now is       79.3 secs

     total energy              =    -653.78499970 Ry
     estimated scf accuracy    <       0.00000009 Ry

     total magnetization       =     4.45 Bohr mag/cell
     absolute magnetization    =     4.66 Bohr mag/cell

     iteration # 12     ecut=    50.00 Ry     beta= 0.70
     Davidson diagonalization with overlap
     ethr =  2.91E-10,  avg # of iterations =  2.1

     negative rho (up, down):  0.000E+00 2.981E-04

     Magnetic moment per site  (integrated on atomic sphere of radius R)
     atom   1 (R=0.357)  charge= 14.4155  magn=  2.2655
     atom   2 (R=0.357)  charge= 14.4155  magn=  2.2658

     total cpu time spent up to now is       85.6 secs

     End of self-consistent calculation

     Number of k-points >= 100: set verbosity='high' to print the bands.

     the Fermi energy is    17.4249 ev

!    total energy              =    -653.78499973 Ry
     total all-electron energy =     -5086.436418 Ry
     estimated scf accuracy    <          1.3E-09 Ry
     smearing contrib. (-TS)   =      -0.00539701 Ry
     internal energy E=F+TS    =    -653.77960272 Ry

     The total energy is F=E-TS. E is the sum of the following terms:
     one-electron contribution =    -224.89124547 Ry
     hartree contribution      =     131.74884201 Ry
     xc contribution           =     -54.81406499 Ry
     ewald contribution        =    -344.39297617 Ry
     one-center paw contrib.   =    -161.43015810 Ry

     total magnetization       =     4.45 Bohr mag/cell
     absolute magnetization    =     4.66 Bohr mag/cell

     convergence has been achieved in  12 iterations

     negative rho (up, down):  0.000E+00 2.981E-04

     Forces acting on atoms (cartesian axes, Ry/au):

     atom    1 type  1   force =     0.00000000    0.00000000    0.00000000
     atom    2 type  1   force =     0.00000000    0.00000000    0.00000000

     Total force =     0.000000     Total SCF correction =     0.000000


     Computing stress (Cartesian axis) and pressure


     negative rho (up, down):  0.000E+00 2.981E-04
          total   stress  (Ry/bohr**3)                   (kbar)     P=     -370.58
  -0.00251915   0.00000000   0.00000000         -370.58        0.00        0.00
   0.00000000  -0.00251915   0.00000000            0.00     -370.58        0.00
   0.00000000   0.00000000  -0.00251915            0.00        0.00     -370.58


     BFGS Geometry Optimization
     Energy error            =      0.0E+00 Ry
     Gradient error          =      0.0E+00 Ry/Bohr
     Cell gradient error     =      3.7E+02 kbar

     number of scf cycles    =   1
     number of bfgs steps    =   0

     enthalpy           new  =    -653.7849997348 Ry

     new trust radius        =       0.1585119357 bohr
ibrav =      1
 celldm(1) =      5.06961596
Input lattice vectors:
     0.93702132     0.00000000     0.00000000
     0.00000000     0.93702132     0.00000000
     0.00000000     0.00000000     0.93702132
New lattice vectors in INITIAL alat:
     0.93702132     0.00000000     0.00000000
     0.00000000     0.93702132     0.00000000
     0.00000000     0.00000000     0.93702132
New lattice vectors in NEW alat (for information only):
     1.00000000     0.00000000     0.00000000
     0.00000000     1.00000000     0.00000000
     0.00000000     0.00000000     1.00000000
Discrepancy in bohr =     0.000000    0.000000    0.000000
     new conv_thr            =       0.0000000100 Ry

     new unit-cell volume =    130.29423 a.u.^3 (    19.30761 Ang^3 )
     density =      9.60583 g/cm^3

CELL_PARAMETERS (alat=  5.41035287)
   0.937021315   0.000000000   0.000000000
   0.000000000   0.937021315   0.000000000
   0.000000000   0.000000000   0.937021315

ATOMIC_POSITIONS (crystal)
Fe1              0.0000000000        0.0000000000        0.0000000000
Fe1              0.5000000000        0.5000000000        0.5000000000



     Writing config-only to output data dir ./temp/fe-afm.save/ :
     XML data file
     NEW-OLD atomic charge density approx. for the potential

     Check: negative core charge=   -0.000004

     negative rho (up, down):  0.000E+00 2.449E-04
     Generating pointlists ...
     new r_m :   0.3347 (alat units)  1.8110 (a.u.) for type    1
     new r_m :   0.3865 (alat units)  2.0912 (a.u.) for type    2

     total cpu time spent up to now is       92.2 secs

     Self-consistent Calculation

     iteration #  1     ecut=    50.00 Ry     beta= 0.70
     Davidson diagonalization with overlap
     ethr =  1.00E-06,  avg # of iterations =  7.2

     negative rho (up, down):  0.000E+00 2.312E-04

     total cpu time spent up to now is      106.3 secs

     total energy              =    -653.77545347 Ry
     estimated scf accuracy    <       0.04855959 Ry

     total magnetization       =     3.94 Bohr mag/cell
     absolute magnetization    =     4.10 Bohr mag/cell

     iteration #  2     ecut=    50.00 Ry     beta= 0.70
     Davidson diagonalization with overlap
     ethr =  1.52E-04,  avg # of iterations =  3.5

     negative rho (up, down):  0.000E+00 1.459E-04

     total cpu time spent up to now is      114.5 secs

     total energy              =    -653.78383148 Ry
     estimated scf accuracy    <       0.17107259 Ry

     total magnetization       =     4.06 Bohr mag/cell
     absolute magnetization    =     4.20 Bohr mag/cell

     iteration #  3     ecut=    50.00 Ry     beta= 0.70
     Davidson diagonalization with overlap
     ethr =  1.52E-04,  avg # of iterations =  3.0

     negative rho (up, down):  0.000E+00 1.005E-04

     total cpu time spent up to now is      121.9 secs

     total energy              =    -653.79253949 Ry
     estimated scf accuracy    <       0.00520038 Ry

     total magnetization       =     3.91 Bohr mag/cell
     absolute magnetization    =     4.05 Bohr mag/cell

     iteration #  4     ecut=    50.00 Ry     beta= 0.70
     Davidson diagonalization with overlap
     ethr =  1.63E-05,  avg # of iterations =  3.1

     negative rho (up, down):  0.000E+00 1.001E-04

     total cpu time spent up to now is      128.9 secs

     total energy              =    -653.79560389 Ry
     estimated scf accuracy    <       0.01125740 Ry

     total magnetization       =     3.78 Bohr mag/cell
     absolute magnetization    =     3.89 Bohr mag/cell

     iteration #  5     ecut=    50.00 Ry     beta= 0.70
     Davidson diagonalization with overlap
     ethr =  1.63E-05,  avg # of iterations =  1.0

     negative rho (up, down):  0.000E+00 1.181E-04

     total cpu time spent up to now is      134.5 secs

     total energy              =    -653.79307879 Ry
     estimated scf accuracy    <       0.00381028 Ry

     total magnetization       =     3.77 Bohr mag/cell
     absolute magnetization    =     3.89 Bohr mag/cell

     iteration #  6     ecut=    50.00 Ry     beta= 0.70
     Davidson diagonalization with overlap
     ethr =  1.19E-05,  avg # of iterations =  2.0

     negative rho (up, down):  0.000E+00 1.067E-04

     total cpu time spent up to now is      140.4 secs

     total energy              =    -653.79352517 Ry
     estimated scf accuracy    <       0.00002201 Ry

     total magnetization       =     3.77 Bohr mag/cell
     absolute magnetization    =     3.88 Bohr mag/cell

     iteration #  7     ecut=    50.00 Ry     beta= 0.70
     Davidson diagonalization with overlap
     ethr =  6.88E-08,  avg # of iterations =  3.6

     negative rho (up, down):  0.000E+00 9.533E-05

     total cpu time spent up to now is      147.6 secs

     total energy              =    -653.79351739 Ry
     estimated scf accuracy    <       0.00000218 Ry

     total magnetization       =     3.76 Bohr mag/cell
     absolute magnetization    =     3.87 Bohr mag/cell

     iteration #  8     ecut=    50.00 Ry     beta= 0.70
     Davidson diagonalization with overlap
     ethr =  6.81E-09,  avg # of iterations =  2.5

     negative rho (up, down):  0.000E+00 9.268E-05

     total cpu time spent up to now is      154.9 secs

     total energy              =    -653.79351887 Ry
     estimated scf accuracy    <       0.00000362 Ry

     total magnetization       =     3.75 Bohr mag/cell
     absolute magnetization    =     3.87 Bohr mag/cell

     iteration #  9     ecut=    50.00 Ry     beta= 0.70
     Davidson diagonalization with overlap
     ethr =  6.81E-09,  avg # of iterations =  2.3

     negative rho (up, down):  0.000E+00 9.261E-05

     Magnetic moment per site  (integrated on atomic sphere of radius R)
     atom   1 (R=0.335)  charge= 14.2537  magn=  1.8843
     atom   2 (R=0.335)  charge= 14.2537  magn=  1.8851

     total cpu time spent up to now is      161.5 secs

     End of self-consistent calculation

     Number of k-points >= 100: set verbosity='high' to print the bands.

     the Fermi energy is    22.2274 ev

!    total energy              =    -653.79351945 Ry
     total all-electron energy =     -5086.444938 Ry
     estimated scf accuracy    <          9.3E-09 Ry
     smearing contrib. (-TS)   =      -0.00538407 Ry
     internal energy E=F+TS    =    -653.78813538 Ry

     The total energy is F=E-TS. E is the sum of the following terms:
     one-electron contribution =    -188.47433833 Ry
     hartree contribution      =     118.75789395 Ry
     xc contribution           =     -55.09101971 Ry
     ewald contribution        =    -367.54017288 Ry
     one-center paw contrib.   =    -161.44049842 Ry

     total magnetization       =     3.75 Bohr mag/cell
     absolute magnetization    =     3.87 Bohr mag/cell

     convergence has been achieved in   9 iterations

     negative rho (up, down):  0.000E+00 9.261E-05

     Forces acting on atoms (cartesian axes, Ry/au):

     atom    1 type  1   force =     0.00000000    0.00000000    0.00000000
     atom    2 type  1   force =     0.00000000    0.00000000    0.00000000

     Total force =     0.000000     Total SCF correction =     0.000000


     Computing stress (Cartesian axis) and pressure


     negative rho (up, down):  0.000E+00 9.261E-05
          total   stress  (Ry/bohr**3)                   (kbar)     P=      317.28
   0.00215682   0.00000000   0.00000000          317.28        0.00        0.00
   0.00000000   0.00215682   0.00000000            0.00      317.28        0.00
   0.00000000   0.00000000   0.00215682            0.00        0.00      317.28

     Energy error            =      8.5E-03 Ry
     Gradient error          =      0.0E+00 Ry/Bohr
     Cell gradient error     =      3.2E+02 kbar

     number of scf cycles    =   2
     number of bfgs steps    =   1

     enthalpy           old  =    -653.7849997348 Ry
     enthalpy           new  =    -653.7935194524 Ry

     CASE: enthalpy          _new < enthalpy          _old

     new trust radius        =       0.0658460859 bohr
ibrav =      1
 celldm(1) =      5.21583786
Input lattice vectors:
     0.96404763     0.00000000     0.00000000
     0.00000000     0.96404763     0.00000000
     0.00000000     0.00000000     0.96404763
New lattice vectors in INITIAL alat:
     0.96404763     0.00000000     0.00000000
     0.00000000     0.96404763     0.00000000
     0.00000000     0.00000000     0.96404763
New lattice vectors in NEW alat (for information only):
     1.00000000     0.00000000     0.00000000
     0.00000000     1.00000000     0.00000000
     0.00000000     0.00000000     1.00000000
Discrepancy in bohr =     0.000000    0.000000    0.000000
     new conv_thr            =            1.0E-10 Ry

     new unit-cell volume =    141.89668 a.u.^3 (    21.02692 Ang^3 )
     density =      8.82039 g/cm^3

CELL_PARAMETERS (alat=  5.41035287)
   0.964047631   0.000000000   0.000000000
   0.000000000   0.964047631   0.000000000
   0.000000000   0.000000000   0.964047631

ATOMIC_POSITIONS (crystal)
Fe1              0.0000000000        0.0000000000        0.0000000000
Fe1              0.5000000000        0.5000000000        0.5000000000



     Writing config-only to output data dir ./temp/fe-afm.save/ :
     XML data file
     NEW-OLD atomic charge density approx. for the potential

     Check: negative core charge=   -0.000006

     negative rho (up, down):  0.000E+00 9.776E-05
     Generating pointlists ...

     total cpu time spent up to now is      167.8 secs

     Self-consistent Calculation

     iteration #  1     ecut=    50.00 Ry     beta= 0.70
     Davidson diagonalization with overlap
     ethr =  1.00E-06,  avg # of iterations =  6.1

     negative rho (up, down):  0.000E+00 1.249E-04

     total cpu time spent up to now is      179.7 secs

     total energy              =    -653.80352225 Ry
     estimated scf accuracy    <       0.00352437 Ry

     total magnetization       =     3.98 Bohr mag/cell
     absolute magnetization    =     4.10 Bohr mag/cell

     iteration #  2     ecut=    50.00 Ry     beta= 0.70
     Davidson diagonalization with overlap
     ethr =  1.10E-05,  avg # of iterations =  2.9

     negative rho (up, down):  0.000E+00 1.489E-04

     total cpu time spent up to now is      187.9 secs

     total energy              =    -653.80413514 Ry
     estimated scf accuracy    <       0.01006520 Ry

     total magnetization       =     3.97 Bohr mag/cell
     absolute magnetization    =     4.11 Bohr mag/cell

     iteration #  3     ecut=    50.00 Ry     beta= 0.70
     Davidson diagonalization with overlap
     ethr =  1.10E-05,  avg # of iterations =  3.1

     negative rho (up, down):  0.000E+00 1.526E-04

     total cpu time spent up to now is      194.5 secs

     total energy              =    -653.80547822 Ry
     estimated scf accuracy    <       0.00046835 Ry

     total magnetization       =     4.02 Bohr mag/cell
     absolute magnetization    =     4.15 Bohr mag/cell

     iteration #  4     ecut=    50.00 Ry     beta= 0.70
     Davidson diagonalization with overlap
     ethr =  1.46E-06,  avg # of iterations =  2.8

     negative rho (up, down):  0.000E+00 1.609E-04

     total cpu time spent up to now is      200.9 secs

     total energy              =    -653.80512374 Ry
     estimated scf accuracy    <       0.01355468 Ry

     total magnetization       =     4.03 Bohr mag/cell
     absolute magnetization    =     4.17 Bohr mag/cell

     iteration #  5     ecut=    50.00 Ry     beta= 0.70
     Davidson diagonalization with overlap
     ethr =  1.46E-06,  avg # of iterations =  2.2

     negative rho (up, down):  0.000E+00 1.617E-04

     total cpu time spent up to now is      207.1 secs

     total energy              =    -653.80570827 Ry
     estimated scf accuracy    <       0.00020134 Ry

     total magnetization       =     4.07 Bohr mag/cell
     absolute magnetization    =     4.22 Bohr mag/cell

     iteration #  6     ecut=    50.00 Ry     beta= 0.70
     Davidson diagonalization with overlap
     ethr =  6.29E-07,  avg # of iterations =  2.6

     negative rho (up, down):  0.000E+00 1.699E-04

     total cpu time spent up to now is      213.3 secs

     total energy              =    -653.80575320 Ry
     estimated scf accuracy    <       0.00000552 Ry

     total magnetization       =     4.08 Bohr mag/cell
     absolute magnetization    =     4.23 Bohr mag/cell

     iteration #  7     ecut=    50.00 Ry     beta= 0.70
     Davidson diagonalization with overlap
     ethr =  1.72E-08,  avg # of iterations =  2.1

     negative rho (up, down):  0.000E+00 1.732E-04

     total cpu time spent up to now is      220.1 secs

     total energy              =    -653.80575525 Ry
     estimated scf accuracy    <       0.00000325 Ry

     total magnetization       =     4.09 Bohr mag/cell
     absolute magnetization    =     4.23 Bohr mag/cell

     iteration #  8     ecut=    50.00 Ry     beta= 0.70
     Davidson diagonalization with overlap
     ethr =  1.02E-08,  avg # of iterations =  2.3

     negative rho (up, down):  0.000E+00 1.727E-04

     total cpu time spent up to now is      226.0 secs

     total energy              =    -653.80575586 Ry
     estimated scf accuracy    <       0.00000008 Ry

     total magnetization       =     4.09 Bohr mag/cell
     absolute magnetization    =     4.23 Bohr mag/cell

     iteration #  9     ecut=    50.00 Ry     beta= 0.70
     Davidson diagonalization with overlap
     ethr =  2.52E-10,  avg # of iterations =  3.0

     negative rho (up, down):  0.000E+00 1.729E-04

     total cpu time spent up to now is      232.4 secs

     total energy              =    -653.80575588 Ry
     estimated scf accuracy    <       0.00000004 Ry

     total magnetization       =     4.09 Bohr mag/cell
     absolute magnetization    =     4.23 Bohr mag/cell

     iteration # 10     ecut=    50.00 Ry     beta= 0.70
     Davidson diagonalization with overlap
     ethr =  1.29E-10,  avg # of iterations =  1.2

     negative rho (up, down):  0.000E+00 1.728E-04

     total cpu time spent up to now is      237.6 secs

     total energy              =    -653.80575589 Ry
     estimated scf accuracy    <       0.00000001 Ry

     total magnetization       =     4.09 Bohr mag/cell
     absolute magnetization    =     4.23 Bohr mag/cell

     iteration # 11     ecut=    50.00 Ry     beta= 0.70
     Davidson diagonalization with overlap
     ethr =  3.62E-11,  avg # of iterations =  2.8

     negative rho (up, down):  0.000E+00 1.728E-04

     total cpu time spent up to now is      244.2 secs

     total energy              =    -653.80575589 Ry
     estimated scf accuracy    <          1.0E-09 Ry

     total magnetization       =     4.09 Bohr mag/cell
     absolute magnetization    =     4.23 Bohr mag/cell

     iteration # 12     ecut=    50.00 Ry     beta= 0.70
     Davidson diagonalization with overlap
     ethr =  3.19E-12,  avg # of iterations =  2.0

     negative rho (up, down):  0.000E+00 1.728E-04

     Magnetic moment per site  (integrated on atomic sphere of radius R)
     atom   1 (R=0.335)  charge= 14.1497  magn=  2.0545
     atom   2 (R=0.335)  charge= 14.1497  magn=  2.0545

     total cpu time spent up to now is      249.8 secs

     End of self-consistent calculation

     Number of k-points >= 100: set verbosity='high' to print the bands.

     the Fermi energy is    20.0197 ev

!    total energy              =    -653.80575589 Ry
     total all-electron energy =     -5086.457174 Ry
     estimated scf accuracy    <          8.5E-11 Ry
     smearing contrib. (-TS)   =      -0.00546583 Ry
     internal energy E=F+TS    =    -653.80029006 Ry

     The total energy is F=E-TS. E is the sum of the following terms:
     one-electron contribution =    -204.56974497 Ry
     hartree contribution      =     124.39987789 Ry
     xc contribution           =     -54.95562413 Ry
     ewald contribution        =    -357.23647370 Ry
     one-center paw contrib.   =    -161.43832515 Ry

     total magnetization       =     4.09 Bohr mag/cell
     absolute magnetization    =     4.23 Bohr mag/cell

     convergence has been achieved in  12 iterations

     negative rho (up, down):  0.000E+00 1.728E-04

     Forces acting on atoms (cartesian axes, Ry/au):

     atom    1 type  1   force =     0.00000000    0.00000000    0.00000000
     atom    2 type  1   force =     0.00000000    0.00000000    0.00000000

     Total force =     0.000000     Total SCF correction =     0.000000


     Computing stress (Cartesian axis) and pressure


     negative rho (up, down):  0.000E+00 1.728E-04
          total   stress  (Ry/bohr**3)                   (kbar)     P=        5.86
   0.00003983   0.00000000   0.00000000            5.86        0.00        0.00
   0.00000000   0.00003983   0.00000000            0.00        5.86        0.00
   0.00000000   0.00000000   0.00003983            0.00        0.00        5.86

     Energy error            =      1.2E-02 Ry
     Gradient error          =      0.0E+00 Ry/Bohr
     Cell gradient error     =      5.9E+00 kbar

     number of scf cycles    =   3
     number of bfgs steps    =   2

     enthalpy           old  =    -653.7935194524 Ry
     enthalpy           new  =    -653.8057558866 Ry

     CASE: enthalpy          _new < enthalpy          _old

     new trust radius        =       0.0013317144 bohr
ibrav =      1
 celldm(1) =      5.21875340
Input lattice vectors:
     0.96458651     0.00000000     0.00000000
     0.00000000     0.96458651     0.00000000
     0.00000000     0.00000000     0.96458651
New lattice vectors in INITIAL alat:
     0.96458651     0.00000000     0.00000000
     0.00000000     0.96458651     0.00000000
     0.00000000     0.00000000     0.96458651
New lattice vectors in NEW alat (for information only):
     1.00000000     0.00000000     0.00000000
     0.00000000     1.00000000     0.00000000
     0.00000000     0.00000000     1.00000000
Discrepancy in bohr =     0.000000    0.000000    0.000000
     new conv_thr            =            1.0E-10 Ry

     new unit-cell volume =    142.13477 a.u.^3 (    21.06220 Ang^3 )
     density =      8.80561 g/cm^3

CELL_PARAMETERS (alat=  5.41035287)
   0.964586513   0.000000000   0.000000000
   0.000000000   0.964586513   0.000000000
   0.000000000   0.000000000   0.964586513

ATOMIC_POSITIONS (crystal)
Fe1              0.0000000000        0.0000000000        0.0000000000
Fe1              0.5000000000        0.5000000000        0.5000000000



     Writing config-only to output data dir ./temp/fe-afm.save/ :
     XML data file
     NEW-OLD atomic charge density approx. for the potential

     Check: negative core charge=   -0.000006

     negative rho (up, down):  0.000E+00 1.731E-04
     Generating pointlists ...

     total cpu time spent up to now is      256.0 secs

     Self-consistent Calculation

     iteration #  1     ecut=    50.00 Ry     beta= 0.70
     Davidson diagonalization with overlap
     ethr =  1.00E-06,  avg # of iterations =  2.0

     Threshold (ethr) on eigenvalues was too large:
     Diagonalizing with lowered threshold

     Davidson diagonalization with overlap
     ethr =  4.29E-09,  avg # of iterations =  2.5

     negative rho (up, down):  0.000E+00 1.736E-04

     total cpu time spent up to now is      268.3 secs

     total energy              =    -653.80575956 Ry
     estimated scf accuracy    <       0.00000194 Ry

     total magnetization       =     4.09 Bohr mag/cell
     absolute magnetization    =     4.24 Bohr mag/cell

     iteration #  2     ecut=    50.00 Ry     beta= 0.70
     Davidson diagonalization with overlap
     ethr =  6.06E-09,  avg # of iterations =  3.1

     negative rho (up, down):  0.000E+00 1.741E-04

     total cpu time spent up to now is      276.1 secs

     total energy              =    -653.80575943 Ry
     estimated scf accuracy    <       0.00000808 Ry

     total magnetization       =     4.09 Bohr mag/cell
     absolute magnetization    =     4.24 Bohr mag/cell

     iteration #  3     ecut=    50.00 Ry     beta= 0.70
     Davidson diagonalization with overlap
     ethr =  6.06E-09,  avg # of iterations =  3.2

     negative rho (up, down):  0.000E+00 1.741E-04

     total cpu time spent up to now is      283.0 secs

     total energy              =    -653.80575969 Ry
     estimated scf accuracy    <       0.00002021 Ry

     total magnetization       =     4.09 Bohr mag/cell
     absolute magnetization    =     4.24 Bohr mag/cell

     iteration #  4     ecut=    50.00 Ry     beta= 0.70
     Davidson diagonalization with overlap
     ethr =  6.06E-09,  avg # of iterations =  1.7

     negative rho (up, down):  0.000E+00 1.743E-04

     total cpu time spent up to now is      288.6 secs

     total energy              =    -653.80576052 Ry
     estimated scf accuracy    <       0.00000008 Ry

     total magnetization       =     4.09 Bohr mag/cell
     absolute magnetization    =     4.24 Bohr mag/cell

     iteration #  5     ecut=    50.00 Ry     beta= 0.70
     Davidson diagonalization with overlap
     ethr =  2.55E-10,  avg # of iterations =  2.7

     negative rho (up, down):  0.000E+00 1.744E-04

     total cpu time spent up to now is      295.4 secs

     total energy              =    -653.80576056 Ry
     estimated scf accuracy    <       0.00000008 Ry

     total magnetization       =     4.09 Bohr mag/cell
     absolute magnetization    =     4.24 Bohr mag/cell

     iteration #  6     ecut=    50.00 Ry     beta= 0.70
     Davidson diagonalization with overlap
     ethr =  2.49E-10,  avg # of iterations =  1.2

     negative rho (up, down):  0.000E+00 1.745E-04

     total cpu time spent up to now is      300.8 secs

     total energy              =    -653.80576055 Ry
     estimated scf accuracy    <       0.00000001 Ry

     total magnetization       =     4.09 Bohr mag/cell
     absolute magnetization    =     4.24 Bohr mag/cell

     iteration #  7     ecut=    50.00 Ry     beta= 0.70
     Davidson diagonalization with overlap
     ethr =  3.32E-11,  avg # of iterations =  2.5

     negative rho (up, down):  0.000E+00 1.746E-04

     Magnetic moment per site  (integrated on atomic sphere of radius R)
     atom   1 (R=0.335)  charge= 14.1480  magn=  2.0577
     atom   2 (R=0.335)  charge= 14.1480  magn=  2.0577

     total cpu time spent up to now is      307.3 secs

     End of self-consistent calculation

     Number of k-points >= 100: set verbosity='high' to print the bands.

     the Fermi energy is    19.9780 ev

!    total energy              =    -653.80576055 Ry
     total all-electron energy =     -5086.457179 Ry
     estimated scf accuracy    <          8.7E-11 Ry
     smearing contrib. (-TS)   =      -0.00546284 Ry
     internal energy E=F+TS    =    -653.80029771 Ry

     The total energy is F=E-TS. E is the sum of the following terms:
     one-electron contribution =    -204.88324757 Ry
     hartree contribution      =     124.51128004 Ry
     xc contribution           =     -54.95318636 Ry
     ewald contribution        =    -357.03689782 Ry
     one-center paw contrib.   =    -161.43824600 Ry

     total magnetization       =     4.09 Bohr mag/cell
     absolute magnetization    =     4.24 Bohr mag/cell

     convergence has been achieved in   7 iterations

     negative rho (up, down):  0.000E+00 1.746E-04

     Forces acting on atoms (cartesian axes, Ry/au):

     atom    1 type  1   force =     0.00000000    0.00000000    0.00000000
     atom    2 type  1   force =     0.00000000    0.00000000    0.00000000

     Total force =     0.000000     Total SCF correction =     0.000000


     Computing stress (Cartesian axis) and pressure


     negative rho (up, down):  0.000E+00 1.746E-04
          total   stress  (Ry/bohr**3)                   (kbar)     P=       -0.12
  -0.00000084   0.00000000   0.00000000           -0.12        0.00        0.00
   0.00000000  -0.00000084   0.00000000            0.00       -0.12        0.00
   0.00000000   0.00000000  -0.00000084            0.00        0.00       -0.12

     Energy error            =      4.7E-06 Ry
     Gradient error          =      0.0E+00 Ry/Bohr
     Cell gradient error     =      1.2E-01 kbar
ibrav =      1
 celldm(1) =      5.21875340
Input lattice vectors:
     0.96458651     0.00000000     0.00000000
     0.00000000     0.96458651     0.00000000
     0.00000000     0.00000000     0.96458651
New lattice vectors in INITIAL alat:
     0.96458651     0.00000000     0.00000000
     0.00000000     0.96458651     0.00000000
     0.00000000     0.00000000     0.96458651
New lattice vectors in NEW alat (for information only):
     1.00000000     0.00000000     0.00000000
     0.00000000     1.00000000     0.00000000
     0.00000000     0.00000000     1.00000000
Discrepancy in bohr =     0.000000    0.000000    0.000000

     bfgs converged in   4 scf cycles and   3 bfgs steps
     (criteria: energy <  1.0E-05 Ry, force <  1.0E-04 Ry/Bohr, cell <  5.0E-01 kbar)

     End of BFGS Geometry Optimization

     Final enthalpy           =    -653.8057605484 Ry

     File ./temp/fe-afm.bfgs deleted, as requested
Begin final coordinates
     new unit-cell volume =    142.13477 a.u.^3 (    21.06220 Ang^3 )
     density =      8.80561 g/cm^3

CELL_PARAMETERS (alat=  5.41035287)
   0.964586513   0.000000000   0.000000000
   0.000000000   0.964586513   0.000000000
   0.000000000   0.000000000   0.964586513

ATOMIC_POSITIONS (crystal)
Fe1              0.0000000000        0.0000000000        0.0000000000
Fe1              0.5000000000        0.5000000000        0.5000000000
End final coordinates



     Writing config-only to output data dir ./temp/fe-afm.save/ :
     XML data file

     Final scf calculation at the relaxed structure.
     The G-vectors are recalculated for the final unit cell
     Results may differ from those at the preceding step.

     Parallelization info
     --------------------
     sticks:   dense  smooth     PW     G-vecs:    dense   smooth      PW
     Min         434     218     68                 9606     3381     618
     Max         435     219     69                 9607     3382     619
     Sum         869     437    137                19213     6763    1237

     Using Slab Decomposition



     bravais-lattice index     =            1
     lattice parameter (alat)  =       5.4104  a.u.
     unit-cell volume          =     142.1348 (a.u.)^3
     number of atoms/cell      =            2
     number of atomic types    =            2
     number of electrons       =        32.00
     number of Kohn-Sham states=           20
     kinetic-energy cutoff     =      50.0000  Ry
     charge density cutoff     =     400.0000  Ry
     scf convergence threshold =      1.0E-10
     mixing beta               =       0.7000
     number of iterations used =            8  plain     mixing
     press convergence thresh. =      5.0E-01
     Exchange-correlation= SLA  PW   PSX  PSC
                           (   1   4  10   8   0   0   0)

     celldm(1)=   5.410353  celldm(2)=   0.000000  celldm(3)=   0.000000
     celldm(4)=   0.000000  celldm(5)=   0.000000  celldm(6)=   0.000000

     crystal axes: (cart. coord. in units of alat)
               a(1) = (   0.964587   0.000000   0.000000 )  
               a(2) = (   0.000000   0.964587   0.000000 )  
               a(3) = (   0.000000   0.000000   0.964587 )  

     reciprocal axes: (cart. coord. in units 2 pi/alat)
               b(1) = (  1.036714  0.000000  0.000000 )  
               b(2) = (  0.000000  1.036714  0.000000 )  
               b(3) = (  0.000000  0.000000  1.036714 )  


     PseudoPot. # 1 for Fe read from file:
     ./../../pseudos/Fe.pbesol-spn-kjpaw_psl.1.0.0.UPF
     MD5 check sum: e30d5f36a6f0cb983ee41abee56170da
     Pseudo is Projector augmented-wave + core cor, Zval = 16.0
     Generated using &quot;atomic&quot; code by A. Dal Corso  v.6.3
     Shape of augmentation charge: PSQ
     Using radial grid of 1191 points,  6 beta functions with: 
                l(1) =   0
                l(2) =   0
                l(3) =   1
                l(4) =   1
                l(5) =   2
                l(6) =   2
     Q(r) pseudized with 0 coefficients 


     PseudoPot. # 2 for Fe read from file:
     ./../../pseudos/Fe.pbesol-spn-kjpaw_psl.1.0.0.UPF
     MD5 check sum: e30d5f36a6f0cb983ee41abee56170da
     Pseudo is Projector augmented-wave + core cor, Zval = 16.0
     Generated using &quot;atomic&quot; code by A. Dal Corso  v.6.3
     Shape of augmentation charge: PSQ
     Using radial grid of 1191 points,  6 beta functions with: 
                l(1) =   0
                l(2) =   0
                l(3) =   1
                l(4) =   1
                l(5) =   2
                l(6) =   2
     Q(r) pseudized with 0 coefficients 


     atomic species   valence    mass     pseudopotential
     Fe1              16.00    55.84500     Fe( 1.00)
     Fe2              16.00    55.84500     Fe( 1.00)

     Starting magnetic structure 
     atomic species   magnetization
     Fe1             0.145
     Fe2             0.000

     48 Sym. Ops., with inversion, found



   Cartesian axes

     site n.     atom                  positions (alat units)
         1        Fe1    tau(   1) = (   0.0000000   0.0000000   0.0000000  )
         2        Fe1    tau(   2) = (   0.4822933   0.4822933   0.4822933  )

     number of k points=    56  Gaussian smearing, width (Ry)=  0.0200
                       cart. coord. in units 2pi/alat
        k(    1) = (   0.0000000   0.0000000   0.0000000), wk =   0.0007513
        k(    2) = (   0.0000000   0.0000000   0.0942467), wk =   0.0045079
        k(    3) = (   0.0000000   0.0000000   0.1884934), wk =   0.0045079
        k(    4) = (   0.0000000   0.0000000   0.2827401), wk =   0.0045079
        k(    5) = (   0.0000000   0.0000000   0.3769868), wk =   0.0045079
        k(    6) = (   0.0000000   0.0000000   0.4712335), wk =   0.0045079
        k(    7) = (   0.0000000   0.0942467   0.0942467), wk =   0.0090158
        k(    8) = (   0.0000000   0.0942467   0.1884934), wk =   0.0180316
        k(    9) = (   0.0000000   0.0942467   0.2827401), wk =   0.0180316
        k(   10) = (   0.0000000   0.0942467   0.3769868), wk =   0.0180316
        k(   11) = (   0.0000000   0.0942467   0.4712335), wk =   0.0180316
        k(   12) = (   0.0000000   0.1884934   0.1884934), wk =   0.0090158
        k(   13) = (   0.0000000   0.1884934   0.2827401), wk =   0.0180316
        k(   14) = (   0.0000000   0.1884934   0.3769868), wk =   0.0180316
        k(   15) = (   0.0000000   0.1884934   0.4712335), wk =   0.0180316
        k(   16) = (   0.0000000   0.2827401   0.2827401), wk =   0.0090158
        k(   17) = (   0.0000000   0.2827401   0.3769868), wk =   0.0180316
        k(   18) = (   0.0000000   0.2827401   0.4712335), wk =   0.0180316
        k(   19) = (   0.0000000   0.3769868   0.3769868), wk =   0.0090158
        k(   20) = (   0.0000000   0.3769868   0.4712335), wk =   0.0180316
        k(   21) = (   0.0000000   0.4712335   0.4712335), wk =   0.0090158
        k(   22) = (   0.0942467   0.0942467   0.0942467), wk =   0.0060105
        k(   23) = (   0.0942467   0.0942467   0.1884934), wk =   0.0180316
        k(   24) = (   0.0942467   0.0942467   0.2827401), wk =   0.0180316
        k(   25) = (   0.0942467   0.0942467   0.3769868), wk =   0.0180316
        k(   26) = (   0.0942467   0.0942467   0.4712335), wk =   0.0180316
        k(   27) = (   0.0942467   0.1884934   0.1884934), wk =   0.0180316
        k(   28) = (   0.0942467   0.1884934   0.2827401), wk =   0.0360631
        k(   29) = (   0.0942467   0.1884934   0.3769868), wk =   0.0360631
        k(   30) = (   0.0942467   0.1884934   0.4712335), wk =   0.0360631
        k(   31) = (   0.0942467   0.2827401   0.2827401), wk =   0.0180316
        k(   32) = (   0.0942467   0.2827401   0.3769868), wk =   0.0360631
        k(   33) = (   0.0942467   0.2827401   0.4712335), wk =   0.0360631
        k(   34) = (   0.0942467   0.3769868   0.3769868), wk =   0.0180316
        k(   35) = (   0.0942467   0.3769868   0.4712335), wk =   0.0360631
        k(   36) = (   0.0942467   0.4712335   0.4712335), wk =   0.0180316
        k(   37) = (   0.1884934   0.1884934   0.1884934), wk =   0.0060105
        k(   38) = (   0.1884934   0.1884934   0.2827401), wk =   0.0180316
        k(   39) = (   0.1884934   0.1884934   0.3769868), wk =   0.0180316
        k(   40) = (   0.1884934   0.1884934   0.4712335), wk =   0.0180316
        k(   41) = (   0.1884934   0.2827401   0.2827401), wk =   0.0180316
        k(   42) = (   0.1884934   0.2827401   0.3769868), wk =   0.0360631
        k(   43) = (   0.1884934   0.2827401   0.4712335), wk =   0.0360631
        k(   44) = (   0.1884934   0.3769868   0.3769868), wk =   0.0180316
        k(   45) = (   0.1884934   0.3769868   0.4712335), wk =   0.0360631
        k(   46) = (   0.1884934   0.4712335   0.4712335), wk =   0.0180316
        k(   47) = (   0.2827401   0.2827401   0.2827401), wk =   0.0060105
        k(   48) = (   0.2827401   0.2827401   0.3769868), wk =   0.0180316
        k(   49) = (   0.2827401   0.2827401   0.4712335), wk =   0.0180316
        k(   50) = (   0.2827401   0.3769868   0.3769868), wk =   0.0180316
        k(   51) = (   0.2827401   0.3769868   0.4712335), wk =   0.0360631
        k(   52) = (   0.2827401   0.4712335   0.4712335), wk =   0.0180316
        k(   53) = (   0.3769868   0.3769868   0.3769868), wk =   0.0060105
        k(   54) = (   0.3769868   0.3769868   0.4712335), wk =   0.0180316
        k(   55) = (   0.3769868   0.4712335   0.4712335), wk =   0.0180316
        k(   56) = (   0.4712335   0.4712335   0.4712335), wk =   0.0060105

     Dense  grid:    19213 G-vectors     FFT dimensions: (  36,  36,  36)

     Smooth grid:     6763 G-vectors     FFT dimensions: (  24,  24,  24)

     Estimated max dynamical RAM per process >      60.78 MB

     Estimated total dynamical RAM >     121.57 MB

     Check: negative core charge=   -0.000006
     Generating pointlists ...

     Initial potential from superposition of free atoms

     starting charge      31.9992, renormalised to      32.0000
     Starting wfcs are   20 randomized atomic wfcs
     Checking if some PAW data can be deallocated... 

     total cpu time spent up to now is      314.3 secs

     Self-consistent Calculation

     iteration #  1     ecut=    50.00 Ry     beta= 0.70
     Davidson diagonalization with overlap
     ethr =  1.00E-06,  avg # of iterations = 10.4

     total cpu time spent up to now is      329.7 secs

     total energy              =    -653.74346503 Ry
     estimated scf accuracy    <       0.08701268 Ry

     total magnetization       =     4.10 Bohr mag/cell
     absolute magnetization    =     4.12 Bohr mag/cell

     iteration #  2     ecut=    50.00 Ry     beta= 0.70
     Davidson diagonalization with overlap
     ethr =  2.72E-04,  avg # of iterations =  3.5

     total cpu time spent up to now is      337.4 secs

     total energy              =    -653.74754417 Ry
     estimated scf accuracy    <       0.21297184 Ry

     total magnetization       =     4.33 Bohr mag/cell
     absolute magnetization    =     4.40 Bohr mag/cell

     iteration #  3     ecut=    50.00 Ry     beta= 0.70
     Davidson diagonalization with overlap
     ethr =  2.72E-04,  avg # of iterations =  2.8

     total cpu time spent up to now is      343.8 secs

     total energy              =    -653.77914454 Ry
     estimated scf accuracy    <       0.04871513 Ry

     total magnetization       =     4.11 Bohr mag/cell
     absolute magnetization    =     4.21 Bohr mag/cell

     iteration #  4     ecut=    50.00 Ry     beta= 0.70
     Davidson diagonalization with overlap
     ethr =  1.52E-04,  avg # of iterations =  1.5

     negative rho (up, down):  0.000E+00 1.999E-04

     total cpu time spent up to now is      349.0 secs

     total energy              =    -653.78522154 Ry
     estimated scf accuracy    <       0.07545098 Ry

     total magnetization       =     4.10 Bohr mag/cell
     absolute magnetization    =     4.19 Bohr mag/cell

     iteration #  5     ecut=    50.00 Ry     beta= 0.70
     Davidson diagonalization with overlap
     ethr =  1.52E-04,  avg # of iterations =  1.0

     negative rho (up, down):  0.000E+00 1.958E-04

     total cpu time spent up to now is      353.9 secs

     total energy              =    -653.78876811 Ry
     estimated scf accuracy    <       0.00042954 Ry

     total magnetization       =     4.08 Bohr mag/cell
     absolute magnetization    =     4.22 Bohr mag/cell

     iteration #  6     ecut=    50.00 Ry     beta= 0.70
     Davidson diagonalization with overlap
     ethr =  1.34E-06,  avg # of iterations =  2.3

     negative rho (up, down):  0.000E+00 1.968E-04

     total cpu time spent up to now is      360.0 secs

     total energy              =    -653.78892777 Ry
     estimated scf accuracy    <       0.00007275 Ry

     total magnetization       =     4.09 Bohr mag/cell
     absolute magnetization    =     4.24 Bohr mag/cell

     iteration #  7     ecut=    50.00 Ry     beta= 0.70
     Davidson diagonalization with overlap
     ethr =  2.27E-07,  avg # of iterations =  1.6

     negative rho (up, down):  0.000E+00 1.972E-04

     total cpu time spent up to now is      365.6 secs

     total energy              =    -653.78892932 Ry
     estimated scf accuracy    <       0.00001215 Ry

     total magnetization       =     4.09 Bohr mag/cell
     absolute magnetization    =     4.24 Bohr mag/cell

     iteration #  8     ecut=    50.00 Ry     beta= 0.70
     Davidson diagonalization with overlap
     ethr =  3.80E-08,  avg # of iterations =  2.6

     negative rho (up, down):  0.000E+00 1.982E-04

     total cpu time spent up to now is      371.6 secs

     total energy              =    -653.78893303 Ry
     estimated scf accuracy    <       0.00000231 Ry

     total magnetization       =     4.09 Bohr mag/cell
     absolute magnetization    =     4.24 Bohr mag/cell

     iteration #  9     ecut=    50.00 Ry     beta= 0.70
     Davidson diagonalization with overlap
     ethr =  7.22E-09,  avg # of iterations =  1.4

     negative rho (up, down):  0.000E+00 1.987E-04

     total cpu time spent up to now is      376.7 secs

     total energy              =    -653.78893311 Ry
     estimated scf accuracy    <       0.00000069 Ry

     total magnetization       =     4.09 Bohr mag/cell
     absolute magnetization    =     4.24 Bohr mag/cell

     iteration # 10     ecut=    50.00 Ry     beta= 0.70
     Davidson diagonalization with overlap
     ethr =  2.14E-09,  avg # of iterations =  1.5

     negative rho (up, down):  0.000E+00 1.990E-04

     total cpu time spent up to now is      381.8 secs

     total energy              =    -653.78893315 Ry
     estimated scf accuracy    <       0.00000003 Ry

     total magnetization       =     4.10 Bohr mag/cell
     absolute magnetization    =     4.24 Bohr mag/cell

     iteration # 11     ecut=    50.00 Ry     beta= 0.70
     Davidson diagonalization with overlap
     ethr =  7.96E-11,  avg # of iterations =  2.5

     negative rho (up, down):  0.000E+00 1.989E-04

     total cpu time spent up to now is      387.9 secs

     total energy              =    -653.78893316 Ry
     estimated scf accuracy    <          2.2E-09 Ry

     total magnetization       =     4.10 Bohr mag/cell
     absolute magnetization    =     4.25 Bohr mag/cell

     iteration # 12     ecut=    50.00 Ry     beta= 0.70
     Davidson diagonalization with overlap
     ethr =  6.98E-12,  avg # of iterations =  1.9

     negative rho (up, down):  0.000E+00 1.989E-04

     total cpu time spent up to now is      393.3 secs

     total energy              =    -653.78893316 Ry
     estimated scf accuracy    <          5.4E-10 Ry

     total magnetization       =     4.10 Bohr mag/cell
     absolute magnetization    =     4.25 Bohr mag/cell

     iteration # 13     ecut=    50.00 Ry     beta= 0.70
     Davidson diagonalization with overlap
     ethr =  1.70E-12,  avg # of iterations =  2.4

     negative rho (up, down):  0.000E+00 1.989E-04

     Magnetic moment per site  (integrated on atomic sphere of radius R)
     atom   1 (R=0.335)  charge= 14.1481  magn=  2.0599
     atom   2 (R=0.335)  charge= 14.1481  magn=  2.0599

     total cpu time spent up to now is      399.1 secs

     End of self-consistent calculation

     Number of k-points >= 100: set verbosity='high' to print the bands.

     the Fermi energy is    19.9803 ev

!    total energy              =    -653.78893316 Ry
     total all-electron energy =     -5086.440352 Ry
     estimated scf accuracy    <          3.8E-11 Ry
     smearing contrib. (-TS)   =      -0.00546581 Ry
     internal energy E=F+TS    =    -653.78346736 Ry

     The total energy is F=E-TS. E is the sum of the following terms:
     one-electron contribution =    -204.84989112 Ry
     hartree contribution      =     124.48930480 Ry
     xc contribution           =     -54.95331408 Ry
     ewald contribution        =    -357.03689782 Ry
     one-center paw contrib.   =    -161.43266914 Ry

     total magnetization       =     4.10 Bohr mag/cell
     absolute magnetization    =     4.25 Bohr mag/cell

     convergence has been achieved in  13 iterations

     negative rho (up, down):  0.000E+00 1.989E-04

     Forces acting on atoms (cartesian axes, Ry/au):

     atom    1 type  1   force =     0.00000000    0.00000000    0.00000000
     atom    2 type  1   force =     0.00000000    0.00000000    0.00000000

     Total force =     0.000000     Total SCF correction =     0.000000


     Computing stress (Cartesian axis) and pressure


     negative rho (up, down):  0.000E+00 1.989E-04
          total   stress  (Ry/bohr**3)                   (kbar)     P=     -188.38
  -0.00128056   0.00000000   0.00000000         -188.38        0.00        0.00
   0.00000000  -0.00128056   0.00000000            0.00     -188.38        0.00
   0.00000000   0.00000000  -0.00128056            0.00        0.00     -188.38


     Writing all to output data dir ./temp/fe-afm.save/ :
     XML data file, charge density, pseudopotentials, collected wavefunctions

     init_run     :      7.38s CPU      7.60s WALL (       2 calls)
     electrons    :    358.34s CPU    367.82s WALL (       5 calls)
     update_pot   :      2.39s CPU      2.40s WALL (       3 calls)
     forces       :      4.76s CPU      4.86s WALL (       5 calls)
     stress       :     16.88s CPU     16.90s WALL (       5 calls)

     Called by init_run:
     wfcinit      :      2.95s CPU      3.06s WALL (       2 calls)
     potinit      :      1.82s CPU      1.86s WALL (       2 calls)
     hinit0       :      2.17s CPU      2.20s WALL (       2 calls)

     Called by electrons:
     c_bands      :    263.70s CPU    271.54s WALL (      55 calls)
     sum_band     :     45.99s CPU     47.48s WALL (      55 calls)
     v_of_rho     :      3.27s CPU      3.32s WALL (      58 calls)
     newd         :      8.12s CPU      8.20s WALL (      58 calls)
     PAW_pot      :     43.50s CPU     43.60s WALL (      61 calls)
     mix_rho      :      0.29s CPU      0.30s WALL (      55 calls)

     Called by c_bands:
     init_us_2    :      5.14s CPU      5.29s WALL (   14000 calls)
     cegterg      :    254.80s CPU    262.46s WALL (    6160 calls)

     Called by *egterg:
     cdiaghg      :     19.09s CPU     19.35s WALL (   21871 calls)
     h_psi        :    138.72s CPU    145.16s WALL (   22655 calls)
     s_psi        :     17.73s CPU     18.17s WALL (   22655 calls)
     g_psi        :      1.38s CPU      1.39s WALL (   16271 calls)

     Called by h_psi:
     h_psi:calbec :     19.94s CPU     21.04s WALL (   22655 calls)
     vloc_psi     :    100.27s CPU    104.89s WALL (   22655 calls)
     add_vuspsi   :     17.69s CPU     18.41s WALL (   22655 calls)

     General routines
     calbec       :     31.30s CPU     32.89s WALL (   31951 calls)
     fft          :      1.20s CPU      1.23s WALL (    1647 calls)
     ffts         :      0.16s CPU      0.16s WALL (     226 calls)
     fftw         :     98.42s CPU    102.78s WALL (  776802 calls)
     interpolate  :      0.24s CPU      0.24s WALL (     116 calls)

     Parallel routines

     PWSCF        :   6m33.39s CPU   6m43.33s WALL


   This run was terminated on:   7: 5:59  23Dec2024            

=------------------------------------------------------------------------------=
   JOB DONE.
=------------------------------------------------------------------------------=
